# ODT 1.0
# Table Start
# Title: mmArchive Data Table, Mon Feb 01 16:59:47 GMT 2021
# Columns: {Oxs_CGEvolve:evolver:Max mxHxm} {Oxs_CGEvolve:evolver:Total energy} {Oxs_CGEvolve:evolver:Delta E} {Oxs_CGEvolve:evolver:Bracket count} {Oxs_CGEvolve:evolver:Line min count} {Oxs_CGEvolve:evolver:Conjugate cycle count} {Oxs_CGEvolve:evolver:Cycle count} {Oxs_CGEvolve:evolver:Cycle sub count} {Oxs_CGEvolve:evolver:Energy calc count} Oxs_UniformExchange:exchange:Energy {Oxs_UniformExchange:exchange:Max Spin Ang} {Oxs_UniformExchange:exchange:Stage Max Spin Ang} {Oxs_UniformExchange:exchange:Run Max Spin Ang} Oxs_UniaxialAnisotropy:uniaxialanisotropy:Energy Oxs_Demag:demag:Energy Oxs_MinDriver::Iteration {Oxs_MinDriver::Stage iteration} Oxs_MinDriver::Stage Oxs_MinDriver::mx    Oxs_MinDriver::my    Oxs_MinDriver::mz   
# Units:                 A/m                                 J                                J                                 {}                                   {}                                        {}                                      {}                                   {}                                      {}                                     J                                      deg                                            deg                                              deg                                              J                                   J                       {}                           {}                         {}                 {}                   {}                   {}           
                  0.093895190330000003               2.23850600277e-16                 0                                 368                                  220                                       111                                     336                                  188                                     589                                   1.2746658487099999e-16                     31.853639057799999                             179.657346295                                    179.657346295                                    4.7312867289399998e-17                 4.90711481172e-17       571                          571                        0                    1.8023125892800002e-18  5.2815653926500003e-08 -0.167332898865     
# Table End
