# OOMMF OVF 2.0
#
# Segment count: 1
#
# Begin: Segment
# Begin: Header
#
# Title: Oxs_MinDriver::Magnetization
# Desc: Oxs vector field output
# Desc:  MIF source file: C:/Users/grl31/Documents/GitHub/phd-work/Skyrmions/stdprob3/drive-189/stdprob3.mif
# Desc:  Iteration: 514, State id: 1094
# Desc:  Stage: 0, Stage iteration: 514
# Desc:  Stage simulation time: -1 s
# Desc:  Total simulation time: -2 s
# meshunit: m
# meshtype: rectangular
# xbase: 3.1249999999999999e-09
# ybase: 3.1249999999999999e-09
# zbase: 3.1249999999999999e-09
# xnodes: 16
# ynodes: 16
# znodes: 16
# xstepsize: 6.2499999999999997e-09
# ystepsize: 6.2499999999999997e-09
# zstepsize: 6.2499999999999997e-09
# xmin: 0
# ymin: 0
# zmin: 0
# xmax: 9.9999999999999995e-08
# ymax: 9.9999999999999995e-08
# zmax: 9.9999999999999995e-08
# valuedim: 3
# valuelabels: Magnetization_x Magnetization_y Magnetization_z
# valueunits: A/m A/m A/m
#
# End: Header
#
# Begin: Data Text
 502314.086233270 -1157224.87871675 -7782.65825966815
 609557.900204538 -1103916.92408799 -36824.2030368596
 745868.626170557 -1015101.51737894 -69269.9994829392
 880540.093099685 -898206.728084129 -97073.4206019119
 999358.835430857 -761181.186143779 -115907.509791150
 1096897.25963803 -610894.165983199 -123183.402637021
 1171837.65547097 -452197.981817872 -117740.924826869
 1224083.05244279 -288482.973973805 -99738.0838422209
 1253606.71506258 -122564.806070130 -70693.0207442187
 1260379.67535859 43207.6623111765 -33550.0041660431
 1244363.39725252 207490.550296432 7539.10039692436
 1205206.79390189 369801.352940505 47675.7193450189
 1142482.38376832 528804.825034954 81540.7304220603
 1057902.23825157 679451.011194883 103627.258033397
 960811.595124303 810209.335914383 109322.191666746
 877852.352376462 900564.008086274 99544.6919009305
 447945.238273329 -1179129.85548737 23393.9805406891
 539322.748387478 -1140469.30249054 -3189.68140461414
 668171.872102359 -1069444.35138362 -37209.6700313535
 806360.890455221 -967602.618598443 -71251.0894278319
 937809.214912551 -837871.215586289 -100175.513155719
 1053058.94836036 -684319.917601235 -119676.783760965
 1146241.82920078 -511554.212999712 -126457.056235106
 1213197.43382632 -324988.101515316 -118676.667250400
 1250983.99742808 -131321.129978540 -96660.3844342597
 1258420.25176346 62399.9552996254 -63514.9309151292
 1236103.90491417 250970.921866471 -24701.4888697460
 1185352.98218743 431635.895449596 13348.8687814912
 1107858.42934267 601857.294778979 44350.0639760792
 1007985.94896898 756028.378383185 62728.3722039412
 898403.872524881 883306.390510989 64728.1486966922
 809586.691063797 966090.390355964 52803.2028686389
 368066.716382975 -1205879.50485246 43942.4963650271
 442036.575870994 -1181420.88795194 19944.4734715453
 556756.126803571 -1131963.88645198 -15159.3520362281
 693082.164319835 -1052619.80552555 -56374.5459941051
 837105.525862731 -938618.918366439 -98986.3403387020
 976599.517485354 -786771.973035598 -137086.380840696
 1099161.26990051 -597151.655460742 -163718.765113048
 1191960.20679151 -375686.132911736 -172163.369746050
 1244106.60308106 -136068.519112664 -158850.713550607
 1250924.21314049 103463.201245322 -126623.101706889
 1215184.01392953 328310.200670216 -84200.0911219936
 1143448.21069821 531343.803736611 -41825.6213431104
 1043163.35579083 709433.892621284 -7949.59460520148
 924189.857270002 858653.321989063 11705.1815600712
 803696.128102358 972321.301152875 14603.1474899276
 713148.408187058 1040649.04491651 4283.00520272143
 278129.627883062 -1229583.80117775 48135.4016691932
 335474.843560781 -1215865.12033921 26039.7657311675
 431733.158165423 -1185346.56581289 -10460.8783121927
 558012.753864586 -1129874.56853686 -59620.9427723677
 707106.622809625 -1037978.63487651 -118953.807999649
 869000.873426244 -896143.159687204 -182522.191114432
 1026720.39994124 -693016.537345881 -239003.619697646
 1154767.11567325 -428912.568556636 -272206.443738565
 1226139.67623116 -126732.859432728 -268458.018376644
 1228479.63487564 173026.906023164 -229017.264429612
 1170758.34375549 437922.471568672 -170582.063362567
 1071382.36792460 656623.059053833 -111961.649407386
 947514.453284011 830340.951498946 -65572.0672289647
 814782.122445351 962442.975825397 -37189.2746199371
 691738.262382983 1054643.46262332 -27834.7628015183
 605477.346599805 1106271.41451025 -33319.2303466915
 185905.330434071 -1247190.79471805 38778.3522820288
 227271.784743548 -1240797.93792683 17816.9586336693
 302096.296900987 -1224681.34352642 -21044.3611445752
 409963.320166163 -1190432.10153944 -79692.6512401103
 552136.296331446 -1123023.00437117 -159731.877987765
 726181.518735035 -998791.263899608 -258119.824741252
 916766.016364181 -788307.193775632 -360085.087722737
 1085475.16286501 -475162.316833841 -433028.722353646
 1178944.76510506 -92044.7074675282 -439507.046106834
 1171214.48326790 279310.340575249 -376552.517917755
 1085431.30101377 578253.790816638 -281088.731728436
 959753.673669898 796509.736338335 -189722.314750600
 821358.717504423 949984.718576704 -120201.175406824
 687345.241861264 1055094.67129076 -76688.8780951021
 572507.847309714 1122723.26525487 -57242.1640330967
 496238.104465557 1158502.63355185 -56292.2965316996
 93794.4327006283 -1257909.75465257 20373.6217506990
 119216.426594250 -1255920.72780732 -3.60274530031545
 169789.295751194 -1249380.28685439 -42070.4740514378
 250744.760559064 -1231346.23540963 -111637.558705283
 370447.444018961 -1186404.98199791 -216243.707028245
 536506.470312139 -1083567.56905961 -359988.279690326
 743327.233053161 -871522.469330968 -528642.261810137
 947055.757086325 -502744.338682697 -664742.772665561
 1062010.56050698 -18716.0816434464 -680685.469639631
 1043138.68113559 427918.102030325 -565948.072522922
 936293.449437048 742343.389210780 -404759.558201262
 800886.552444669 938312.196852282 -264008.299624257
 667422.952829742 1057927.70440222 -163966.475882197
 548312.597828807 1131544.26234734 -102519.794820266
 451776.385071133 1175686.87465859 -72165.7922185954
 389749.053388056 1198103.49588154 -64754.3006950830
 1485.83814294821 -1261562.58598029 -2657.98019153595
 10337.0348172287 -1261322.44541505 -22544.7404583821
 33440.8808597355 -1259301.73693849 -67751.5590225137
 78564.2122572822 -1250398.26829986 -147923.176358762
 157114.708717083 -1220588.96150643 -277537.360137987
 283684.460844882 -1135114.83271402 -471791.134027251
 466674.505244046 -921819.537854475 -723887.475167197
 674328.834906691 -491633.177970722 -946111.447796055
 805107.062731833 104223.480547362 -965654.966621550
 795098.635006965 610914.489841587 -765605.040233283
 702850.250078497 911552.223642219 -516355.982299492
 593181.378999265 1066401.93791557 -320112.775967169
 490941.662743319 1146440.20383086 -190264.483659008
 402679.329721709 1190226.64652688 -112957.152191459
 332242.422586020 1214811.54907561 -73466.3445779114
 287117.059955140 1226961.68565585 -60648.5509656740
 -92145.7888335142 -1257922.17059844 -26275.4112455098
 -100835.387355804 -1256719.85471266 -45131.6113908809
 -108302.886852637 -1253545.56649934 -91888.1294193624
 -106910.264717457 -1244224.56652291 -178954.894534525
 -87332.9011053821 -1215555.31873788 -326109.893121207
 -36128.4996834672 -1130707.75445259 -558340.520158052
 63746.6853119529 -903404.641399496 -878262.970259215
 213394.423808250 -413701.161903427 -1172545.77712184
 350948.728419733 266312.148159287 -1182143.07961529
 402532.630167926 790062.182148300 -897395.487456959
 387471.374676645 1052694.32925760 -577278.107911628
 347036.343681572 1163350.18376941 -343120.324385995
 300321.322915899 1209667.13390166 -195094.743853184
 254679.006654635 1230817.35786452 -108520.348634596
 215061.961301388 1241482.43681331 -63396.7097272930
 188106.599387173 1246586.92279712 -46758.7649234219
 -188106.625680985 -1246586.91883328 -46758.7648212981
 -215061.984759283 -1241482.43256547 -63396.7133350232
 -254679.028218660 -1230817.35285232 -108520.354874796
 -300321.339104832 -1209667.12914903 -195094.748400818
 -347036.356368471 -1163350.17935943 -343120.326506362
 -387471.391273489 -1052694.32510480 -577278.104344596
 -402532.652282979 -790062.179066740 -897395.480250095
 -350948.759760549 -266312.149594125 -1182143.06998774
 -213394.460793844 413701.159355497 -1172545.77128971
 -63746.7158380992 903404.639440656 -878262.970058460
 36128.4789869649 1130707.75643093 -558340.517490866
 87332.8862414889 1215555.32087111 -326109.889150290
 106910.248274026 1244224.56836046 -178954.891582099
 108302.872130937 1253545.56819517 -91888.1236363145
 100835.369104998 1256719.85640456 -45131.6050557526
 92145.7717710295 1257922.17191143 -26275.4082233310
 -287117.088584224 -1226961.67876382 -60648.5548626813
 -332242.449840661 -1214811.54147966 -73466.3469259040
 -402679.355805069 -1190226.63723224 -112957.157144645
 -490941.683664600 -1146440.19443252 -190264.486305367
 -593181.393021731 -1066401.93088642 -320112.773399411
 -702850.261442166 -911552.216897353 -516355.978738655
 -795098.647817939 -610914.489145271 -765605.027484415
 -805107.083992786 -104223.488837426 -965654.948000651
 -674328.863598859 491633.166367551 -946111.433375499
 -466674.528850311 921819.532140241 -723887.467225425
 -283684.478435956 1135114.83108718 -471791.127363991
 -157114.723200939 1220588.96040796 -277537.356769614
 -78564.2253606455 1250398.26737087 -147923.177252133
 -33440.8953970037 1259301.73670199 -67751.5562430979
 -10337.0476902368 1261322.44543191 -22544.7336128387
 -1485.85093790755 1261562.58597154 -2657.97718983734
 -389749.080630378 -1198103.48667101 -64754.3071425147
 -451776.413710512 -1175686.86339062 -72165.7965004426
 -548312.625131822 -1131544.24884249 -102519.797851395
 -667422.973081653 -1057927.69149509 -163966.476725206
 -800886.566675094 -938312.187329380 -264008.290300682
 -936293.455970230 -742343.384407781 -404759.551897516
 -1043138.68921699 -427918.106431306 -565948.054299912
 -1062010.57621964 18716.0659781493 -680685.445555344
 -947055.778136060 502744.319926156 -664742.756861662
 -743327.248476437 871522.461340928 -528642.253295791
 -536506.480233324 1083567.56545003 -359988.275769239
 -370447.450562103 1186404.98037594 -216243.704717999
 -250744.770998023 1231346.23295624 -111637.562319174
 -169789.301735177 1249380.28605123 -42070.4737528664
 -119216.436665610 1255920.72685131 -3.60226505069272
 -93794.4391037664 1257909.75419618 20373.6204506950
 -496238.135716609 -1158502.61960841 -56292.3079994088
 -572507.876058430 -1122723.25022819 -57242.1712295209
 -687345.268421511 -1055094.65360929 -76688.8833052490
 -821358.735115146 -949984.703349838 -120201.175411565
 -959753.682528362 -796509.727223420 -189722.308205109
 -1085431.30107264 -578253.793941285 -281088.725073096
 -1171214.48304053 -279310.360828502 -376552.503601968
 -1178944.77464777 92044.6837087999 -439507.025484930
 -1085475.17594358 475162.297796732 -433028.710458944
 -916766.027337993 788307.185224184 -360085.078504776
 -726181.526681749 998791.260484747 -258119.815598120
 -552136.296427533 1123023.00473013 -159731.875131886
 -409963.319779624 1190432.10166491 -79692.6513544096
 -302096.297105084 1224681.34331031 -21044.3707915972
 -227271.785363124 1240797.93793746 17816.9499906938
 -185905.324366292 1247190.79590501 38778.3431963064
 -605477.376495534 -1106271.39763726 -33319.2473016199
 -691738.292415837 -1054643.44254545 -27834.7771764582
 -814782.146683900 -962442.954931733 -37189.2842953931
 -947514.466327635 -830340.936341073 -65572.0706935577
 -1071382.36835368 -656623.058152407 -111961.650587976
 -1170758.33837984 -437922.487117810 -170582.060339278
 -1228479.63291650 -173026.930351410 -229017.256558243
 -1226139.68040948 126732.832954689 -268458.011792486
 -1154767.12315878 428912.551889064 -272206.438245963
 -1026720.40661826 693016.530655717 -239003.610413125
 -869000.875064378 896143.159498205 -182522.184243105
 -707106.619176656 1037978.63736925 -118953.807844010
 -558012.746350834 1129874.57217768 -59620.9440989552
 -431733.149141353 1185346.56899960 -10460.8896524879
 -335474.832019438 1215865.12392375 26039.7470487042
 -278129.609683840 1229583.80604285 48135.3825501456
 -713148.435089853 -1040649.02657330 4282.98259410799
 -803696.153448645 -972321.280608452 14603.1204454855
 -924189.875257262 -858653.302862588 11705.1644195402
 -1043163.36180594 -709433.883597308 -7949.61060242483
 -1143448.20788588 -531343.809457640 -41825.6255488717
 -1215184.00858035 -328310.219552551 -84200.0946965457
 -1250924.21085404 -103463.221565746 -126623.107691225
 -1244106.60450900 136068.496273234 -158850.721930980
 -1191960.20979350 375686.119545316 -172163.378129554
 -1099161.27381782 597151.647642490 -163718.767329843
 -976599.518107687 786771.971832994 -137086.383309240
 -837105.518051492 938618.925114562 -98986.3424088436
 -693082.149199722 1052619.81492873 -56374.5563090819
 -556756.109172633 1131963.89489892 -15159.3688253137
 -442036.558904132 1181420.89478841 19944.4445521839
 -368066.694954148 1205879.51277570 43942.4584237411
 -809586.718452931 -966090.369459675 52803.1652539526
 -898403.895924186 -883306.369360165 64728.1125552199
 -1007985.96356216 -756028.361695067 62728.3388372530
 -1107858.43114016 -601857.293499597 44350.0364368215
 -1185352.97787399 -431635.907940034 13348.8479275095
 -1236103.90083895 -250970.940250020 -24701.5060208741
 -1258420.24998337 -62399.9735636215 -63514.9482406705
 -1250983.99784225 131321.111704530 -96660.4039007522
 -1213197.43594051 324988.086640850 -118676.686370352
 -1146241.83117191 511554.204910022 -126457.071093282
 -1053058.94842507 684319.915128765 -119676.797329330
 -937809.208007122 837871.221737750 -100175.526350992
 -806360.874188766 967602.630784353 -71251.1080312668
 -668171.851984992 1069444.36291732 -37209.6997873022
 -539322.727066859 1140469.31245136 -3189.72488433876
 -447945.210943144 1179129.86694709 23393.9262499228
 -877852.387841178 -900563.978273932 99544.6488562961
 -960811.619045185 -810209.313764911 109322.145585031
 -1057902.25026846 -679450.999031015 103627.215110878
 -1142482.38478689 -528804.829186181 81540.6892293490
 -1205206.78999462 -369801.369740327 47675.6878084004
 -1244363.39515191 -207490.563818803 7539.07495055762
 -1260379.67407025 -43207.6767486890 -33550.0339715968
 -1253606.71543209 122564.788128784 -70693.0452977304
 -1224083.05359650 288482.958742624 -99738.1137375782
 -1171837.65702770 452197.971043734 -117740.950712676
 -1096897.25751492 610894.165885393 -123183.422027436
 -999358.828407695 761181.192025480 -115907.531719136
 -880540.079432245 898206.738496056 -97073.4482373389
 -745868.604121450 1015101.53075515 -69270.0408792980
 -609557.873770304 1103916.93692714 -36824.2557153501
 -502314.051487082 1157224.89337170 -7782.72178878958
 513641.997794238 -1152090.30146018 20230.3312453198
 627779.004468267 -1094266.84721920 -4797.86876963477
 769319.265886038 -999107.137372435 -38499.6896998010
 905052.595181747 -876042.084380153 -70565.5529888019
 1021309.63258488 -734500.145420292 -94792.4136514441
 1114038.77777045 -582130.473886917 -107662.174949595
 1183317.00893720 -423944.665515702 -107616.020460001
 1230203.24004956 -263058.066959886 -94603.7657698361
 1255514.69784494 -101691.829390343 -69936.0153963261
 1259680.58593164 58631.1623587604 -36285.5225445390
 1242675.03413144 217489.950957977 2512.30922978262
 1203719.23773382 375306.050229557 41890.2887259608
 1141523.80255006 531560.203125704 76919.3706654309
 1056505.14778908 681757.565074805 102727.435855320
 956680.076165699 814175.013956489 115895.251997214
 869428.243699910 906479.895080219 118059.983869216
 457343.403038602 -1175191.21503073 36222.2408282544
 554067.647249759 -1133312.72902324 12677.9897448771
 688142.479197896 -1057126.06803158 -22222.4105448092
 828596.301688395 -949439.295050326 -59519.9526344668
 959030.234539350 -814396.046146629 -92571.7029069429
 1070610.48137492 -657142.053724006 -116219.401635477
 1158524.32378481 -483022.552004166 -126728.198808632
 1219854.59491484 -297689.565031218 -122004.594403755
 1252824.65350120 -107452.739220816 -102145.618273651
 1256978.73891700 81581.7214885401 -69987.8814406979
 1232966.85419228 265326.448553561 -30725.2840524647
 1181574.02291850 441977.378849832 9394.45943998750
 1103579.17863170 609678.263546771 44213.5993572451
 1002216.59451463 763169.317239704 68439.1833845597
 889273.259105365 891339.427975784 79098.2028549335
 796663.323861841 975010.186684428 78943.7470225123
 375664.663515246 -1203383.99278464 47879.6137684552
 453864.920129372 -1176815.90723542 25697.9702037069
 573611.557037059 -1123565.79914802 -10913.6399680275
 713354.871878557 -1039020.65271835 -55770.4304342454
 858178.599419498 -918960.403122532 -102911.126270272
 995419.310306377 -761267.800096932 -145468.773706618
 1112933.49567861 -567488.430265396 -175742.273316512
 1199104.92980370 -344840.997808721 -186497.947628676
 1244917.87668901 -107227.538868084 -173871.119302107
 1247139.04914662 128276.316588991 -140494.873981145
 1208710.76702663 348631.549514954 -94993.4485933131
 1135443.36759441 547753.047696497 -47795.2784700476
 1033813.00040984 722994.148180551 -7718.34174206526
 912828.679506087 870586.177939273 19311.6434105851
 789245.600101866 983701.845741502 31168.7716081517
 696010.146314762 1051719.97481738 31692.2974237356
 285290.347955515 -1227939.58213811 48199.9056104584
 346313.608457992 -1212809.86808363 26618.4033092871
 447369.001267214 -1179513.30125388 -12600.7852650517
 577745.949104992 -1119506.01903440 -66823.0690516522
 728956.880523307 -1021080.87728004 -132533.540319822
 889562.961669510 -871311.029001379 -202593.827362241
 1041638.08914228 -660844.953152887 -264241.310281578
 1160645.49630123 -392931.293936119 -300094.087046568
 1222884.04491899 -91896.3560190013 -296072.800763519
 1218972.78215612 203563.282999936 -253410.293981543
 1158019.98947657 463485.375476164 -188998.522775580
 1057059.13829621 677614.519348066 -122531.515260800
 932116.018953784 847432.353191147 -67583.7620558186
 798144.942237039 976512.176195378 -30627.6320102440
 673347.660678584 1066769.80692748 -12431.3235638471
 585727.149104446 1117320.45800413 -8254.20174098771
 193955.585656770 -1245989.49309609 37958.4615816417
 238716.012241763 -1238669.28066839 16202.1463635153
 318177.233419630 -1220490.76490248 -26738.9573497073
 430506.175688943 -1182243.98254534 -92266.0790754574
 575512.656386496 -1107917.88224444 -181252.805387717
 748357.379432684 -973597.829994471 -289167.648601388
 931049.521281066 -752175.757760382 -398657.558913471
 1085669.49106065 -432917.701731345 -474819.387374527
 1165397.99116277 -52091.7365281437 -480295.121876341
 1150417.61570257 312917.221037624 -412518.548889948
 1062751.99255784 605880.895448411 -308246.611926113
 937335.467304207 818880.557494291 -205879.297673170
 799766.888917791 967560.039478435 -125498.702440305
 666496.850794800 1068684.42708726 -72422.1934267638
 551824.727249007 1133608.05721165 -44403.5352233654
 475496.229582757 1168001.24130821 -35012.3817244729
 103670.812207950 -1257132.37367371 20493.6252673670
 132298.426558952 -1254608.65313407 -1919.56508079823
 187450.571058032 -1246587.95092546 -49297.0073779736
 273188.043044527 -1225023.84698569 -127413.886106836
 396193.524255700 -1172753.07197534 -243372.871185778
 560518.887090371 -1057339.91333048 -399249.691060887
 755320.689474552 -830059.703386579 -576229.967794479
 936091.347637950 -454308.625229468 -713362.525535531
 1030433.88731782 21194.6502151312 -727534.343923567
 1005482.22987333 457012.762549276 -609667.328298787
 901271.223173407 765744.985765044 -439197.256337237
 770144.333747617 957614.776650566 -285308.737433469
 640638.799248432 1072996.96945176 -172652.435151747
 524756.540011615 1142798.03782183 -100958.651855967
 430300.451806746 1184271.96973061 -62376.7088283078
 369325.387584264 1205352.21795809 -47688.7792692896
 13716.7141428633 -1261491.62901172 -390.647440019956
 25600.7476140718 -1261088.54997843 -23445.7193078549
 53314.9292307528 -1258210.69309006 -74918.6294181825
 103710.970815111 -1246447.55857522 -164808.826139291
 186467.417987317 -1209287.66249613 -307250.194927087
 311840.595444859 -1109027.10472741 -514163.159834981
 480081.853097974 -876255.489524073 -770225.397090940
 655523.469891209 -441767.869765048 -983198.637399379
 757477.711982671 131172.908715168 -1000285.26670528
 742988.461003478 622309.848185892 -807618.740858264
 658175.017245806 922496.242778966 -554396.752922605
 556633.892093433 1078203.42096357 -345232.565257573
 461129.321987522 1156764.53285684 -202002.462476997
 378110.537885240 1198145.63889446 -114144.119678940
 311215.722931912 1220749.95839438 -66811.2550327555
 267985.895107313 1231847.58820100 -47796.5520289963
 -77385.9004258947 -1259015.23128450 -21011.9187095948
 -83262.2011234638 -1258044.00292506 -44069.5301464080
 -86111.3251523533 -1254821.28137212 -97764.1161934726
 -78833.4307445927 -1243885.35106338 -195151.106904194
 -53339.5347125450 -1209239.24538115 -355590.737204481
 421.224058573121 -1110185.20663470 -599197.847508417
 91492.3695685197 -863528.509939799 -915148.670845804
 212041.854356325 -377795.832898370 -1184845.13400052
 314893.704650260 262913.106782423 -1193007.99828526
 354003.441800801 772916.604857037 -932110.999853779
 342491.690051941 1046151.14445665 -616292.670828037
 309584.581812632 1165415.90164280 -370826.905470662
 270245.596504393 1214358.96331370 -209401.663576531
 230705.173379911 1235199.77805909 -112276.721440719
 195443.954318564 1244903.13789865 -59726.6179300926
 170952.866644562 1249355.08049464 -37900.2789857816
 -170952.892133384 -1249355.07696538 -37900.2803554492
 -195443.980785739 -1244903.13366851 -59726.6194916915
 -230705.199550238 -1235199.77274157 -112276.726166297
 -270245.620546911 -1214358.95672006 -209401.670785921
 -309584.603643404 -1165415.89443582 -370826.909894992
 -342491.710999128 -1046151.13731578 -616292.671308646
 -354003.468089086 -772916.602738183 -932110.991626812
 -314893.739554561 -262913.103408128 -1193007.98981591
 -212041.895410397 377795.831589949 -1184845.12707061
 -91492.3996240258 863528.513159205 -915148.664803180
 -421.246652692997 1110185.20976545 -599197.841691917
 53339.5141213185 1209239.24762131 -355590.732675218
 78833.4115100922 1243885.35351559 -195151.099043883
 86111.3045904074 1254821.28335508 -97764.1088528837
 83262.1828887691 1258044.00425815 -44069.5265424978
 77385.8815392988 1259015.23245755 -21011.9179799492
 -267985.923688711 -1231847.58186658 -47796.5550339435
 -311215.752586389 -1220749.95076437 -66811.2563107731
 -378110.567793013 -1198145.62891029 -114144.125408895
 -461129.346937039 -1156764.52274032 -202002.463454605
 -556633.914626532 -1078203.40981784 -345232.563735922
 -658175.036364270 -922496.232539616 -554396.747263239
 -742988.482255171 -622309.839570093 -807618.727946149
 -757477.736436197 -131172.911666141 -1000285.24780058
 -655523.500335308 441767.867666835 -983198.618044287
 -480081.874183161 876255.486977963 -770225.386845143
 -311840.614437713 1109027.10381158 -514163.150291192
 -186467.434659803 1209287.66151250 -307250.188680138
 -103710.985973017 1246447.55780563 -164808.822421119
 -53314.9435202089 1258210.69254775 -74918.6283570513
 -25600.7615767272 1261088.54970162 -23445.7189506125
 -13716.7228796340 1261491.62891810 -390.643000089465
 -369325.415519521 -1205352.20919922 -47688.7843087852
 -430300.481511952 -1184271.95849026 -62376.7173164115
 -524756.573115385 -1142798.02228769 -100958.655629369
 -640638.825349319 -1072996.95398621 -172652.434417563
 -770144.355665655 -957614.762079763 -285308.727174980
 -901271.234373004 -765744.977761584 -439197.247308800
 -1005482.24295753 -457012.762817766 -609667.306518662
 -1030433.90457394 -21194.6549069723 -727534.319346404
 -936091.366214276 454308.615757527 -713362.507191487
 -755320.703242409 830059.700532886 -576229.953858355
 -560518.895532067 1057339.91438899 -399249.676406069
 -396193.531635017 1172753.07073959 -243372.865127520
 -273188.048994872 1225023.84554304 -127413.887219047
 -187450.578808524 1246587.94967522 -49297.0095221044
 -132298.430528166 1254608.65271294 -1919.56676531852
 -103670.819334430 1257132.37315858 20493.6208159916
 -475496.258221633 -1168001.22936190 -35012.3913102518
 -551824.758202226 -1133608.04183245 -44403.5431785132
 -666496.881161232 -1068684.40775235 -72422.1992783123
 -799766.910961178 -967560.021338620 -125498.701817104
 -937335.480914637 -818880.544198755 -205879.288589773
 -1062751.99717431 -605880.892889497 -308246.601039492
 -1150417.61873567 -312917.232198666 -412518.531965076
 -1165397.99997618 52091.7216229075 -480295.102107902
 -1085669.50168259 432917.690226905 -474819.373576765
 -931049.529273472 752175.754055322 -398657.547238111
 -748357.381407644 973597.832223338 -289167.635985884
 -575512.653912968 1107917.88461416 -181252.798756586
 -430506.170538645 1182243.98444502 -92266.0787650142
 -318177.230034246 1220490.76567733 -26738.9622659572
 -238716.006040697 1238669.28199784 16202.1360900582
 -193955.580870899 1245989.49415617 37958.4512387078
 -585727.177885273 -1117320.44279389 -8254.21833878351
 -673347.687742576 -1066769.78965888 -12431.3395027829
 -798144.970669034 -976512.152632022 -30627.6423620082
 -932116.034478540 -847432.335710242 -67583.7671311599
 -1057059.14125373 -677614.515382901 -122531.511674690
 -1158019.98779591 -463485.381841598 -188998.517463109
 -1218972.78165385 -203563.298880682 -253410.283640679
 -1222884.04855279 91896.3353648034 -296072.792165402
 -1160645.50159222 392931.282182442 -300094.081972898
 -1041638.09290632 660844.951080819 -264241.300625808
 -889562.960985930 871311.031494162 -202593.819642844
 -728956.872319998 1021080.88377589 -132533.535393328
 -577745.934595297 1119506.02643563 -66823.0705060834
 -447368.987063059 1179513.30651393 -12600.7971849955
 -346313.589469306 1212809.87393539 26618.3837348337
 -285290.330098048 1227939.58731007 48199.8795462298
 -696010.172355927 -1051719.95841518 31692.2698335774
 -789245.625665760 -983701.826122116 31168.7434849441
 -912828.698874631 -870586.158090447 19311.6226950690
 -1033813.00820692 -722994.136890607 -7718.35493540631
 -1135443.36449645 -547753.053444968 -47795.2861865937
 -1208710.76290554 -348631.562516349 -94993.4533147677
 -1247139.04707761 -128276.333351616 -140494.877042417
 -1244917.87792645 107227.520522832 -173871.121755688
 -1199104.93277209 344840.987200074 -186497.948158903
 -1112933.49662725 567488.428556187 -175742.272828228
 -995419.305555592 761267.805852525 -145468.776095281
 -858178.587003911 918960.414142388 -102911.131400714
 -713354.856661511 1039020.66258112 -55770.4413275695
 -573611.534210793 1123565.81060289 -10913.6604108618
 -453864.898869450 1176815.91612944 25697.9383922142
 -375664.636999022 1203384.00268257 47879.5730455112
 -796663.354101719 -975010.165262984 78943.7064255413
 -889273.281369448 -891339.409180619 79098.1643460421
 -1002216.60625090 -763169.304817313 68439.1500425164
 -1103579.18204289 -609678.259323858 44213.5724447306
 -1181574.01932273 -441977.388927625 9394.43756694847
 -1232966.85023490 -265326.465318982 -30725.2980804052
 -1256978.73688971 -81581.7375220829 -69987.8991610470
 -1252824.65385644 107452.720031409 -102145.634103006
 -1219854.59546456 297689.555440441 -122004.612308784
 -1158524.32425936 483022.547103881 -126728.213147809
 -1070610.47818445 657142.056343231 -116219.416216093
 -959030.224506300 814396.055983393 -92571.7203094129
 -828596.284271096 949439.308853852 -59519.9749177257
 -688142.453264788 1057126.08422842 -22222.4431049943
 -554067.620462331 1133312.74261569 12677.9453807197
 -457343.373139415 1175191.22833452 36222.1867094261
 -869428.280161471 -906479.866387764 118059.935659997
 -956680.098655856 -814174.994410545 115895.203659874
 -1056505.15909217 -681757.554188364 102727.391856757
 -1141523.80305819 -531560.207852631 76919.3304585218
 -1203719.23352099 -375306.067544991 41890.2546483017
 -1242675.03110829 -217489.968522593 2512.28402388486
 -1259680.58433925 -58631.1798730324 -36285.5495254776
 -1255514.69800513 101691.810110462 -69936.0405549641
 -1230203.24077617 263058.054321015 -94603.7914652104
 -1183317.01004994 423944.656410011 -107616.044095818
 -1114038.77585862 582130.472889289 -107662.200126485
 -1021309.62646225 734500.151083428 -94792.4357368412
 -905052.579819153 876042.097725656 -70565.5843459150
 -769319.241228757 999107.154701658 -38499.7327019618
 -627778.974772213 1094266.86401230 -4797.92430109228
 -513641.958607193 1152090.32012696 20230.2631440031
 535472.163331425 -1140932.76180488 55600.5958277153
 653532.068758521 -1078618.84927946 32041.2859014109
 798488.962107506 -976704.402942711 -3649.32647929279
 934202.233266073 -846844.041637675 -40875.2666340323
 1046907.31804359 -700265.157565212 -71855.4621855657
 1133810.19378680 -545514.561385062 -91857.1646686019
 1196454.98440235 -387708.794716937 -98624.4985633254
 1237112.01706437 -229552.746706176 -91699.6435845578
 1257416.56926663 -72528.1473624649 -72060.1838247949
 1258147.48732106 82763.0597062603 -42007.2257440736
 1239129.46495488 236818.624440129 -4953.69739315898
 1198990.11408483 390830.683897217 34978.7617024152
 1135502.05149908 544800.177096673 73330.0006529782
 1048018.36095726 694290.831427744 105674.913819653
 944113.885913145 826851.213574222 128512.536181387
 852876.247951787 918897.348522449 140638.541933029
 476954.986224982 -1166479.81505630 58208.3593678630
 577769.063454235 -1120921.91440054 35586.5431138879
 716357.388281364 -1038450.79812045 -1209.56879268349
 858515.965458357 -923383.594246651 -43156.7590093887
 986858.579336445 -781596.860980770 -82255.2260589729
 1093132.32986697 -619706.000274739 -112141.043075448
 1173889.86610984 -443925.513102004 -128304.917991040
 1227804.85472045 -260018.196624947 -128199.871559091
 1254462.94761297 -73615.6432166300 -111592.477609103
 1254116.08490799 110402.028715316 -80954.7314834458
 1227286.67783126 289186.012933573 -41088.8215995017
 1174008.84328038 461788.287101403 2060.27045893098