# OOMMF OVF 2.0
#
# Segment count: 1
#
# Begin: Segment
# Begin: Header
#
# Title: Oxs_MinDriver::Magnetization
# Desc: Oxs vector field output
# Desc:  MIF source file: C:/Users/grl31/Documents/GitHub/phd-work/Skyrmions/stdprob3/drive-140/stdprob3.mif
# Desc:  Iteration: 476, State id: 1026
# Desc:  Stage: 0, Stage iteration: 476
# Desc:  Stage simulation time: -1 s
# Desc:  Total simulation time: -2 s
# meshunit: m
# meshtype: rectangular
# xbase: 3.1249999999999999e-09
# ybase: 3.1249999999999999e-09
# zbase: 3.1249999999999999e-09
# xnodes: 16
# ynodes: 16
# znodes: 16
# xstepsize: 6.2499999999999997e-09
# ystepsize: 6.2499999999999997e-09
# zstepsize: 6.2499999999999997e-09
# xmin: 0
# ymin: 0
# zmin: 0
# xmax: 9.9999999999999995e-08
# ymax: 9.9999999999999995e-08
# zmax: 9.9999999999999995e-08
# valuedim: 3
# valuelabels: Magnetization_x Magnetization_y Magnetization_z
# valueunits: A/m A/m A/m
#
# End: Header
#
# Begin: Data Text
 502149.426610311 -1157285.62693438 -9239.15391023322
 609176.944598741 -1104082.42099960 -38143.0036568096
 745324.441541468 -1015421.15698838 -70432.8169267809
 879948.102091784 -898675.099733177 -98101.1399708704
 998822.965837148 -761741.127826063 -116844.204021911
 1096479.34719210 -611462.465212451 -124081.125625384
 1171555.05400433 -452693.319966623 -118646.299619738
 1223920.12907976 -288844.814508719 -100685.757104764
 1253529.77387215 -122762.617173271 -71706.8808396336
 1260351.21536182 43169.9070443228 -34649.7327655153
 1244356.74801657 207570.816058984 6330.15838630742
 1205223.41446541 369918.701171669 46326.0905619912
 1142570.36868692 528847.846009050 80014.6192215581
 1058164.92816484 679303.261524755 101899.433770227
 961378.630312037 809793.582118711 107400.719074192
 878767.595229967 899895.918565830 97489.8981497851
 447944.466635532 -1179156.78230341 22010.6446390975
 539182.659595873 -1140531.19825813 -4480.65954313603
 667892.025921789 -1069577.45419947 -38389.3487471567
 805997.261584369 -967825.750750205 -72326.7683659006
 937433.949637679 -838170.777727640 -101176.916088103
 1052733.05618120 -684651.014008597 -120646.311005949
 1145998.70508876 -511856.027234617 -127435.498341092
 1213039.41376113 -325205.132067307 -119693.081078625
 1250890.32820676 -131421.096883856 -97730.8191492855
 1258361.83070898 62414.1291774397 -64648.3597062823
 1236062.43064138 251053.492707610 -25908.3437369866
 1185343.33651185 431700.558454786 12051.2794235454
 1107946.84493388 601796.724587968 42940.9128362532
 1008287.98473451 755751.153917964 61196.1118914572
 899039.037924655 882778.768930678 63086.3244428006
 810563.181467394 965363.081374799 51096.7796144080
 368206.988759868 -1205881.26657462 42701.4668570408
 442114.897909461 -1181411.14793222 18749.6001806222
 556752.773602739 -1131949.59404623 -16306.3344498013
 692997.195842842 -1052616.00620871 -57479.2218643673
 836956.624346384 -938637.320464805 -100065.081383619
 976416.955330859 -786809.921627737 -138164.783825418
 1098975.61366894 -597189.915452633 -164821.832175250
 1191790.50243235 -375699.519447790 -173305.222996021
 1243958.24838552 -136040.791515988 -160031.903807634
 1250795.76875915 103526.510494806 -127834.413981281
 1215082.65539842 328367.337392662 -85431.0435528219
 1143413.24111581 531319.333431465 -43073.8538086355
 1043278.44576276 709249.244879453 -9220.85482587673
 924564.423935432 858266.728579328 10405.7448381353
 804411.031475825 971748.925957188 13279.6182175949
 714169.345225550 1039953.30670095 2949.09152384687
 278327.112390281 -1229580.92229079 47055.3393992023
 335669.631096645 -1215833.85821667 24967.1562729924
 431913.632882725 -1185270.72178394 -11548.1916674809
 558153.592799721 -1129745.36737064 -60740.4533099180
 707177.141806375 -1037796.46702376 -120118.333565401
 868975.389043845 -895919.205011534 -183738.896934082
 1026587.18872753 -692776.165779576 -240269.346749028
 1154539.26848608 -428698.405252700 -273507.195108970
 1225865.36855295 -126586.451449964 -269776.573131913
 1228224.86809409 173093.836709829 -230329.390237714
 1170580.31187409 437900.864066496 -171854.582777204
 1071341.47694818 656482.260811555 -113172.045705596
 947685.969822133 830053.912722904 -66717.5801017619
 815235.915356311 962015.807405272 -38280.7985091201
 692500.542119506 1054114.74423838 -28888.3378267404
 606486.692880888 1105686.80806195 -34351.1972881263
 186071.541256377 -1247194.77650257 37841.8012009879
 227472.716471746 -1240774.52487201 16857.4199854341
 302336.167747022 -1224604.05307681 -22072.2853108688
 410216.721057085 -1190268.41270520 -80825.6048562334
 552348.571359233 -1122739.08448178 -160988.927611098
 726270.696600471 -998371.346223932 -259489.809467412
 916640.683791554 -787797.381143416 -361517.045242241
 1085100.19841243 -474713.786987447 -434458.065603907
 1178434.37129616 -91829.0010695300 -440918.697754300
 1170770.39293448 279290.709769001 -377945.521714087
 1085175.77542408 578089.653144090 -282409.844515807
 959731.659694441 796250.109842280 -190919.707927873
 821593.614295310 949646.644790190 -121262.582468197
 687846.485775206 1054698.77320565 -77634.6618730631
 573256.906606799 1122296.45436507 -58108.6780623732
 497169.183721828 1158062.89855439 -57118.7943511496
 93859.6197358632 -1257917.97175360 19549.4000243245
 119335.003769686 -1255909.16257815 -873.582567785417
 169977.422889144 -1249321.31129191 -43050.7581674225
 250987.175692094 -1231192.30284211 -112784.670852877
 370688.436630705 -1186084.09209328 -217586.857026123
 536629.339740455 -1083005.92798702 -361492.105852478
 743148.418330867 -870747.604163942 -530168.340335444
 946443.352531303 -502062.213488775 -666129.075446353
 1061168.99336465 -18538.7549773526 -682001.549121627
 1042483.65687210 427676.397343710 -567336.016156761
 935985.744748975 741984.152282742 -406127.608402730
 800893.862552173 937961.481936772 -265229.542563019
 667691.073116632 1057597.68652747 -165000.591668808
 548801.088802891 1131228.06000039 -103391.837760418
 452446.955988593 1175381.90529457 -72928.4556378523
 390547.009839824 1197805.03643022 -65464.1789570013
 1403.19027247798 -1261560.89666508 -3400.87953443456
 10314.5466304033 -1261308.00456625 -23348.6330190227
 33500.2704762971 -1259249.10892427 -68693.8459426352
 78701.4244028963 -1250252.81187254 -149075.226381540
 157289.534454359 -1220248.03016794 -278934.003200310
 283785.736266200 -1134437.59996852 -473356.544888168
 466472.744018664 -920786.260362062 -725331.146949516
 673583.710076111 -490760.379100098 -947094.856254950
 804068.495264467 104171.815192938 -966525.487900603
 794361.188924830 610303.186040714 -766857.062011844
 702550.270765999 910983.884260262 -517765.304538321
 593201.881393310 1066006.01664289 -321390.932217364
 491183.534363569 1146161.00080995 -191319.436313735
 403087.730831714 1190006.77845470 -113813.792678075
 332781.446620870 1214620.00842850 -74190.1262232155
 287746.711938669 1226781.30980804 -61309.6941201392
 -92403.4862094742 -1257888.70295532 -26963.6353758560
 -101029.787501474 -1256676.83811571 -45888.3155047245
 -108409.627027016 -1253469.47962544 -92795.7290738062
 -106921.418854210 -1244059.71810402 -180090.696317450
 -87257.2653765789 -1215185.51549320 -327505.364068251
 -36010.7291118170 -1129954.51553945 -559870.923624177
 63772.0027321677 -902230.068702185 -879467.717267742
 213084.344534677 -412848.504211527 -1172902.64114439
 350334.468665225 265825.969121474 -1182434.66843823
 402047.558453677 789052.276057793 -898500.805402203
 387256.498659605 1051972.11928885 -578736.982923828
 347032.156139487 1162953.52244839 -344466.570437560
 300471.520137406 1209452.23736405 -196192.716583348
 254952.143902687 1230683.29837410 -109395.860714282
 215435.515891843 1241380.30488580 -64124.1612265966
 188551.172483535 1246494.86649056 -47417.6558542467
 -188551.159824601 -1246494.86697881 -47417.6933564140
 -215435.499039717 -1241380.30603827 -64124.1955333691
 -254952.117343236 -1230683.30100349 -109395.893032223
 -300471.479027945 -1209452.24337655 -196192.742478283
 -347032.103673753 -1162953.53398768 -344466.584336243
 -387256.422503332 -1051972.14335910 -578736.990130530
 -402047.450318050 -789052.315418357 -898500.819223131
 -350334.335539691 -265826.010969143 -1182434.69847309
 -213084.211390860 412848.475133617 -1172902.67556807
 -63771.8905784619 902230.053336574 -879467.741163531
 36010.8050111928 1129954.50913340 -559870.931671311
 87257.3119284665 1215185.51489214 -327505.353895612
 106921.446003273 1244059.71907522 -180090.673489782
 108409.641979930 1253469.48046909 -92795.7002091018
 101029.794694805 1256676.83861134 -45888.2860944885
 92403.4896074441 1257888.70346655 -26963.5998813349
 -287746.692922845 -1226781.31203829 -61309.7387414202
 -332781.423806145 -1214620.01244523 -74190.1627985109
 -403087.691827614 -1190006.78849992 -113813.825786440
 -491183.491099309 -1146161.01519547 -191319.461206985
 -593201.832083599 -1066006.03720999 -321390.955011897
 -702550.212107537 -910983.916526333 -517765.327360719
 -794361.116492318 -610303.231902704 -766857.100542953
 -804068.415240885 -104171.847659888 -966525.550974257
 -673583.624887716 490760.375337143 -947094.918791682
 -466472.669401252 920786.272474933 -725331.179560304
 -283785.678155325 1134437.60948552 -473356.556918406
 -157289.495885056 1220248.03651585 -278933.997179232
 -78701.4062980594 1250252.81565392 -149075.204226279
 -33500.2624754185 1259249.11084047 -68693.8147180766
 -10314.5486278311 1261308.00505784 -23348.6055809928
 -1403.19113479703 1261560.89675496 -3400.84583903074
 -390546.993854637 -1197805.03915120 -65464.2245355815
 -452446.935675608 -1175381.91068574 -72928.4947701218
 -548801.056009380 -1131228.07264945 -103391.873431924
 -667691.032411461 -1057597.70748514 -165000.622054708
 -800893.817263316 -937961.511855262 -265229.573514228
 -935985.704455825 -741984.186070133 -406127.639536056
 -1042483.61674514 -427676.435303238 -567336.061275182
 -1061168.95709800 18538.7385310252 -682001.605998241
 -946443.311211486 502062.228623667 -666129.122746805
 -743148.374107560 870747.627620959 -530168.363798440
 -536629.297224984 1083005.94610813 -361492.114676384
 -370688.408020522 1186084.10200524 -217586.851736464
 -250987.164739507 1231192.30673483 -112784.652732317
 -169977.423577066 1249321.31194587 -43050.7364733411
 -119335.007506786 1255909.16223825 -873.560713189601
 -93859.6190475601 1257917.97135525 19549.4289604940
 -497169.177526545 -1158062.89899427 -57118.8393572980
 -573256.892642937 -1122296.45929808 -58108.7205443452
 -687846.461703792 -1054698.78623384 -77634.6981535155
 -821593.584223747 -949646.666359822 -121262.617294062
 -959731.626022512 -796250.142390756 -190919.741446088
 -1085175.74952094 -578089.686735230 -282409.875289424
 -1170770.37350541 -279290.738821019 -377945.560431335
 -1178434.35778091 91828.9942841639 -440918.735289398
 -1085100.18290134 474713.802143321 -434458.087784150
 -916640.657614892 787797.407789122 -361517.053549388
 -726270.670253333 998371.364397750 -259489.813286193
 -552348.552814585 1122739.09453937 -160988.921095525
 -410216.715150172 1190268.41552048 -80825.5933768306
 -302336.166002985 1224604.05377666 -22072.2703712383
 -227472.719877910 1240774.52402848 16857.4361099517
 -186071.543831905 1247194.77575797 37841.8130774544
 -606486.685487960 -1105686.81057743 -34351.2468461430
 -692500.529841737 -1054114.75099277 -28888.3856820590
 -815235.899055213 -962015.819511041 -38280.8414365788
 -947685.948769908 -830053.933632446 -66717.6189948056
 -1071341.45564845 -656482.290805161 -113172.073353954
 -1170580.29683553 -437900.895109295 -171854.606111871
 -1228224.86015158 -173093.857250293 -230329.417154637
 -1225865.36599621 126586.446630305 -269776.587011256
 -1154539.26384403 428698.414485356 -273507.200232781
 -1026587.17689912 692776.185178733 -240269.341353526
 -868975.370604425 895919.224182172 -183738.890664638
 -707177.124365560 1037796.47964845 -120118.327170765
 -558153.583859759 1129745.37193153 -60740.4506301287
 -431913.629859838 1185270.72295266 -11548.1847721262
 -335669.636836759 1215833.85642200 24967.1664962111
 -278327.116185372 1229580.92136363 47055.3411789131
 -714169.333782219 -1039953.31472789 2949.03212626792
 -804411.018373294 -971748.937600022 13279.5599257826
 -924564.412090912 -858266.742022535 10405.6884424973
 -1043278.43319247 -709249.262819417 -9220.89716542137
 -1143413.23021537 -531319.354987866 -43073.8772655047
 -1215082.64894723 -328367.357761376 -85431.0570176588
 -1250795.76689484 -103526.526373048 -127834.419363584
 -1243958.24911572 136040.784927837 -160031.903732087
 -1191790.50367465 375699.519596299 -173305.214130993
 -1098975.60875493 597189.928171948 -164821.818855001
 -976416.941710130 786809.939229294 -138164.779847779
 -836956.606988373 938637.336549967 -100065.075685014
 -692997.182800507 1052616.01495434 -57479.2189505699
 -556752.766633834 1131949.59751109 -16306.3318683002
 -442114.897386909 1181411.14806216 18749.6043148128
 -368206.987382246 1205881.26719110 42701.4613266221
 -810563.166528847 -965363.098069502 51096.7011785972
 -899039.028061672 -882778.784347647 63086.2492669234
 -1008287.97531164 -755751.171517836 61196.0497934059
 -1107946.83901501 -601796.738521115 42940.8702864224
 -1185343.33194688 -431700.571635698 12051.2562591343
 -1236062.42854540 -251053.502692457 -25908.3469802459
 -1258361.83045129 -62414.1388242662 -64648.3554088245
 -1250890.33079112 131421.082926571 -97730.8048397932
 -1213039.41664422 325205.126241670 -119693.067687945
 -1145998.70194591 511856.037225953 -127435.486472904
 -1052733.04800753 684651.028475879 -120646.300227791
 -937433.938894446 838170.791081083 -101176.905004605
 -805997.254499336 967825.756760916 -72326.7668892010
 -667892.018324378 1069577.45876316 -38389.3537752438
 -539182.651436494 1140531.20207832 -4480.66899635235
 -447944.454816146 1179156.78715802 22010.6251069158
 -878767.581618857 -899895.941342395 97489.8105967211
 -961378.620494745 -809793.605431117 107400.631178063
 -1058164.92061326 -679303.283600650 101899.365021857
 -1142570.36681660 -528847.856505180 80014.5765558149
 -1205223.41288597 -369918.708691018 46326.0716100652
 -1244356.74750411 -207570.818905766 6330.16577474749
 -1260351.21555862 -43169.9122558065 -34649.7191139852
 -1253529.77661201 122762.600953646 -71706.8607114132
 -1223920.13251085 288844.804309544 -100685.744656183
 -1171555.05367558 452693.324111553 -118646.287050981
 -1096479.34313753 611462.475555524 -124081.110484840
 -998822.958161868 761741.140096942 -116844.189635341
 -879948.099781708 898675.102316987 -98101.1370223018
 -745324.439722418 1015421.15746038 -70432.8293712711
 -609176.936864762 1104082.42443305 -38143.0277908354
 -502149.409924907 1157285.63394602 -9239.18249524471
 513528.807860851 -1152169.55551371 18517.8228552435
 627415.092500307 -1094467.46208060 -6380.20913656840
 768770.084218170 -999474.770353789 -39902.0294769939
 904451.841102005 -876562.423016362 -71795.6586558762
 1020770.91939435 -735105.814859768 -95893.7015508334
 1113624.86491253 -582730.878089401 -108691.374490602
 1183041.64673491 -424455.343929947 -108625.752098760
 1230046.42445806 -263418.351824862 -95634.7035274206
 1255439.33207013 -101872.083523564 -71018.2582778353
 1259646.85097160 58626.4290223727 -37445.7417654483
 1242654.39705967 217618.787454435 1242.47096376592
 1203711.30880573 375487.339308542 40469.4204447051
 1141575.78304963 531680.389930011 75300.2353081342
 1056723.92176756 681695.435385742 100872.778574699
 957207.669036279 813850.071309819 113802.331637314
 870322.772701304 905914.634417288 115785.911859168
 457393.231712673 -1175218.60788634 34671.1144916243
 553948.421196176 -1133386.49547658 11208.4541543111
 687858.661122737 -1057281.60250477 -23569.1799250742
 828216.840633075 -949693.052321547 -60740.4493143131
 958637.548390729 -814730.026957812 -93693.4624597205
 1070270.64061676 -657505.857674253 -117286.972323403
 1158271.24681857 -483350.635240907 -127786.200837695
 1219688.81032230 -297923.316031410 -123086.695700164
 1252723.13514407 -107558.118876961 -103273.562238448
 1256910.55672292 81602.6381383196 -71177.8952084620
 1232912.61041850 265428.213860811 -31996.7072783107
 1181548.27941280 442073.374092580 8014.12840028274
 1103649.11250905 609660.027544973 42693.3038168710
 1002501.24645463 762944.217012974 66759.2952504496
 889898.665302277 890875.613660312 77268.6055105342
 797639.374968742 974366.313284415 77013.9335118387
 375855.673808308 -1203377.21084778 46532.0512902620
 453969.103988468 -1176803.62028605 24386.9396298960
 573609.420598816 -1123553.97189961 -12171.1029843366
 713252.055475355 -1039026.09230946 -56971.1837622447
 857999.407703561 -918997.468673898 -104067.765759911
 995201.193784990 -761334.685968492 -146606.653154427
 1112713.54760153 -567563.479949248 -176888.914663629
 1198906.55944454 -344893.485412229 -187672.524254374
 1244747.61792366 -107234.543154007 -175081.556272748
 1246994.16191288 128313.867450429 -141741.110811426
 1208597.21231056 348673.713311994 -96274.8718997441
 1135400.46276795 547724.921148830 -49118.5384328378
 1033925.04820642 722817.885496593 -9095.60424327776
 913205.244694697 870221.901141669 17873.2972456897
 789966.489611949 983169.211712782 29676.2084706999
 697036.293118028 1051085.10287591 30165.2698905495
 285535.332085551 -1227927.31007191 47048.1267352818
 346534.535777991 -1212771.47949241 25467.3312671636
 447553.018344192 -1179430.52100189 -13761.2797070604
 577867.978382701 -1119372.04425817 -68001.8897687450
 728986.924893616 -1020902.54140596 -133736.663648941
 889480.340124781 -871108.430600134 -203824.084906145
 1041442.82923795 -660649.523548470 -265496.650417654
 1160365.61105455 -392781.636378151 -301369.649641510
 1222575.85858412 -91819.7762193282 -297366.490414252
 1218700.33600904 203567.447836342 -254713.988841994
 1157836.70286616 463414.249845462 -190291.443462757
 1057022.99665684 677440.885398477 -123796.858797303
 932299.103732310 847131.549397431 -68818.2396926366
 798611.943069304 976091.603440615 -31836.7240581299
 674119.219841412 1066267.84022813 -13623.5551382868
 586737.657439678 1116780.74628247 -9440.17976145215
 194163.978901209 -1245986.80556820 36968.3725114690
 238940.333906477 -1238638.91341601 15185.1876253447
 318419.933148004 -1220403.36000067 -27817.5482751349
 430739.098868157 -1182067.50938845 -93432.6649164662
 575676.903930717 -1107625.48727911 -182513.871060282
 748372.178521036 -973190.017041363 -290499.060352463
 930840.558286099 -751719.051301252 -400004.692321631
 1085233.53733036 -432565.258399183 -476135.377385916
 1164865.22779892 -51985.8010758242 -481597.247158265
 1149976.63117498 312797.949371365 -413836.467145486
 1062513.21986357 605637.507919155 -309545.307726630
 937337.671201678 818568.673706146 -207105.884735635
 800026.448384528 967198.112522050 -126629.080143450
 667015.680388282 1068289.62579886 -73462.8371739522
 552579.559232152 1133201.63928843 -45379.5807799942
 476420.942957543 1167595.63221090 -35957.6928127783
 103772.739767184 -1257137.84270839 19623.8077512062
 132436.874855155 -1254592.30728921 -2836.82715411273
 187639.257580301 -1246518.83054238 -50316.4489697886
 273407.323550062 -1224853.16325345 -128579.138339675
 396380.858378262 -1172415.02945924 -244692.960111980
 560557.546765431 -1056784.46491907 -400663.527650061
 755056.026385124 -829355.793939154 -577588.776724424
 935454.764748284 -453767.999088898 -714540.703551271
 1029643.39354632 21231.1483412324 -728651.598080648
 1004893.35559109 456655.209470435 -610904.898058080
 901020.690265732 765293.744602539 -440495.892267161
 770198.732901992 957205.270620114 -286533.440722361
 640940.747493307 1072641.51923475 -173737.043647696
 525262.061833450 1142481.67994211 -101905.879683570
 430970.927201275 1183983.13144457 -63225.2740677838
 370109.557122587 1205079.69747535 -48489.8894429207
 13666.1645675802 -1261491.68813241 -1177.98039316499
 25594.8736218797 -1261072.60781983 -24294.2620740935
 53371.9654498552 -1258149.64845218 -75896.8136527530
 103821.394600669 -1246283.90640926 -165972.809723182
 186583.297048072 -1208924.07598236 -308607.651706539
 311851.960587130 -1108355.67454998 -515602.060013121
 479805.429116626 -875326.823537914 -771452.612351653
 654831.180826271 -441089.411313242 -983964.271081000
 756618.853710338 131007.299527960 -1000956.75660810
 742407.377170899 621626.796434420 -808678.454761755
 657976.940258151 921853.417025563 -555699.608174929
 556719.701366361 1077754.83181775 -346492.608179460
 461408.727654214 1156462.25799985 -203092.251908726
 378532.755430830 1197924.68911989 -115060.085094371
 311749.048782789 1220570.26583304 -67603.1631378656
 268595.782433537 1231686.11757447 -48528.7992041621
 -77615.4176413503 -1258988.59284550 -21748.5849702339
 -83443.0456247261 -1258003.58500743 -44873.9252158820
 -86223.8274896178 -1254739.44296743 -98710.7529794558
 -78876.0631825620 -1243701.71889814 -196300.871077010
 -53329.7562460344 -1208840.81661503 -356944.320732506
 435.252170799417 -1109431.18037300 -600592.788410481
 91410.8555819438 -862470.457028671 -916154.024797952
 211744.664214674 -377122.978490284 -1185112.60527858
 314457.793913901 262454.100571722 -1193224.02417100
 353697.305426260 771945.364613600 -933031.618491427
 342396.105917195 1045396.20418284 -617625.383101936
 309651.515659375 1164979.61849528 -372139.568252815
 270431.818493701 1214123.78789297 -210521.946926126
 230988.040510544 1235062.69084861 -113199.406950022
 195807.380996522 1244808.21302126 -60509.6129639241
 171373.100480453 1249275.57754693 -38616.3526947896
 -171373.088556291 -1249275.57768335 -38616.4011991002
 -195807.367514646 -1244808.21301066 -60509.6568090367
 -230988.017272834 -1235062.69197511 -113199.442076889
 -270431.787450410 -1214123.79004446 -210521.974395584
 -309651.471864517 -1164979.62351246 -372139.588987610
 -342396.042643140 -1045396.21670987 -617625.396976169
 -353697.217282364 -771945.386754771 -933031.633586821
 -314457.684606691 -262454.124901505 -1193224.04762598
 -211744.557852816 377122.959307121 -1185112.63038671
 -91410.7667202591 862470.450827769 -916154.039501826
 -435.187039046410 1109431.18061669 -600592.788007530
 53329.7989787733 1208840.81875406 -356944.307103846
 78876.0888245268 1243701.72211088 -196300.840418801
 86223.8419158802 1254739.44497702 -98710.7148337122
 83443.0517992448 1258003.58608515 -44873.8835212727
 77615.4218158458 1258988.59333204 -21748.5419078629
 -268595.762152253 -1231686.12002944 -48528.8491479637
 -311749.023726851 -1220570.26965852 -67603.2096134426
 -378532.728341287 -1197924.69377268 -115060.125773832
 -461408.692100976 -1156462.26641596 -203092.284759133
 -556719.660111542 -1077754.84417156 -346492.636038610
 -657976.885670021 -921853.437932816 -555699.638126913
 -742407.312518899 -621626.824244167 -808678.492738326
 -756618.782519751 -131007.321055447 -1000956.80760319
 -654831.109663414 441089.416446281 -983964.316139064
 -479805.363361647 875326.833547213 -771452.641890972
 -311851.910681200 1108355.68589571 -515602.065808602
 -186583.263568434 1208924.08319471 -308607.643694922
 -103821.376643253 1246283.91078243 -165972.788118098
 -53371.9611458398 1258149.65063189 -75896.7805460127
 -25594.8674047860 1261072.60863189 -24294.2264713346
 -13666.1625397767 1261491.68819183 -1177.94028142067
 -370109.539423807 -1205079.70067233 -48489.9450809030
 -430970.905477716 -1183983.13664190 -63225.3248174627
 -525262.029969964 -1142481.69092325 -101905.920809076
 -640940.713690624 -1072641.53334306 -173737.081246781
 -770198.697005835 -957205.289476627 -286533.474217993
 -901020.652933525 -765293.769501553 -440495.925370828
 -1004893.31635885 -456655.236868983 -610904.942111617
 -1029643.35745841 -21231.1604877808 -728651.648721850
 -935454.726784198 453768.008354456 -714540.747368605
 -755055.990148416 829355.813121953 -577588.796550601
 -560557.515366193 1056784.47776338 -400663.537701919
 -396380.835291667 1172415.03931535 -244692.950285925
 -273407.312371595 1224853.16753424 -128579.121330135
 -187639.253331456 1246518.83241729 -50316.4183662233
 -132436.872855911 1254592.30756399 -2836.79896366632
 -103772.734718284 1257137.84265714 19623.8377334201
 -476420.932290391 -1167595.63488359 -35957.7473613106
 -552579.542122197 -1133201.64550642 -45379.6338518505
 -667015.659741579 -1068289.63550462 -73462.8834981152
 -800026.418217563 -967198.131931727 -126629.122482586
 -937337.640796070 -818568.699466708 -207105.920531484
 -1062513.19428759 -605637.537658409 -309545.337330097
 -1149976.61124621 -312797.971354293 -413836.505908170
 -1164865.21444390 51985.7938478084 -481597.280241011
 -1085233.52263937 432565.271653358 -476135.398829111
 -930840.538954170 751719.070752286 -400004.700754608
 -748372.155932587 973190.033667008 -290499.062846979
 -575676.889662339 1107625.49576435 -182513.864570437
 -430739.091779085 1182067.51291282 -93432.6530095049
 -318419.930409518 1220403.36103058 -27817.5344381643
 -238940.332778696 1238638.91335508 15185.2103412032
 -194163.973453115 1245986.80590945 36968.3896244760
 -586737.648676296 -1116780.75038186 -9440.23947223952
 -674119.206712464 -1066267.84782497 -13623.6102048536
 -798611.925749899 -976091.615915456 -31836.7760388079
 -932299.083943997 -847131.567858318 -68818.2805222886
 -1057022.97728332 -677440.908746536 -123796.896450264
 -1157836.68856283 -463414.275090083 -190291.469014121
 -1218700.32940617 -203567.464956015 -254714.006751933
 -1222575.85552333 91819.7694648799 -297366.505083825
 -1160365.60924271 392781.642397199 -301369.648772903
 -1041442.81911910 660649.541235011 -265496.646099684
 -889480.325638981 871108.446907528 -203824.078426670
 -728986.909561662 1020902.55306214 -133736.658242623
 -577867.966219818 1119372.05095236 -68001.8829344744
 -447553.012563230 1179430.52328714 -13761.2718583158
 -346534.532185247 1212771.48028629 25467.3423488840
 -285535.332083491 1227927.31007944 47048.1265514351
 -697036.280542827 -1051085.11323955 30165.1993556771
 -789966.479810274 -983169.221713664 29676.1380584743
 -913205.232602297 -870221.914996022 17873.2405397926
 -1033925.03683049 -722817.901196662 -9095.64971137159
 -1135400.45327232 -547724.938245609 -49118.5672817246
 -1208597.20641299 -348673.730135094 -96274.8850082852
 -1246994.15943163 -128313.881353534 -141741.120054685
 -1244747.61968483 107234.533695062 -175081.549545047
 -1198906.56057138 344893.487582625 -187672.513067155
 -1112713.54191680 567563.493886630 -176888.905703898
 -995201.179859452 761334.706018767 -146606.643562376
 -857999.393692718 918997.482750076 -104067.756970661
 -713252.045077150 1039026.09962233 -56971.1805724657
 -573609.412248454 1123553.97621451 -12171.0982040280
 -453969.096209524 1176803.62333796 24386.9371652466
 -375855.670590964 1203377.21212072 46532.0443580269
 -797639.364184859 -974366.328909160 77013.8475198747
 -889898.652655706 -890875.633450094 77268.5229922629
 -1002501.24184805 -762944.229296457 66759.2240465709
 -1103649.10666712 -609660.041152147 42693.2605241510
 -1181548.27601350 -442073.383622981 8014.10385496773
 -1232912.60906184 -265428.219537004 -31996.7124668502
 -1256910.55664632 -81602.6453173996 -71177.8883306112
 -1252723.13723969 107558.108062673 -103273.548081241
 -1219688.81258190 297923.312277826 -123086.682394622
 -1158271.24428578 483350.645125008 -127786.186408634
 -1070270.63099279 657505.875179797 -117286.962009011
 -958637.536945353 814730.041579181 -93693.4524216467
 -828216.831178696 949693.060854625 -60740.4448110697
 -687858.654160019 1057281.60691549 -23569.1852704933
 -553948.413009844 1133386.49955801 11208.4460328857
 -457393.217419911 1175218.61392868 34671.0982342206
 -870322.761686683 -905914.657990679 115785.810212870
 -957207.661127886 -813850.093417256 113802.240055976
 -1056723.91881577 -681695.449879901 100872.711545984
 -1141575.78277909 -531680.396520306 75300.1928767768
 -1203711.30810057 -375487.343497485 40469.4025527336
 -1242654.39677163 -217618.789087570 1242.47299731574
 -1259646.85118822 -58626.4327592071 -37445.7286280363
 -1255439.33397162 101872.072292123 -71018.2407748003
 -1230046.42690670 263418.346467652 -95634.6867891364
 -1183041.64521439 424455.352192676 -108625.736372073
 -1113624.85690919 582730.896304031 -108691.358836145
 -1020770.91042088 735105.829383046 -95893.6857387017
 -904451.837687380 876562.426924124 -71795.6539615279
 -768770.083847576 999474.770349784 -39902.0367173315
 -627415.085593300 1094467.46592010 -6380.22972404093
 -513528.789264589 1152169.56431148 18517.7911669597
 535428.220102828 -1141050.37860351 53573.1791594597
 653216.395022455 -1078864.64264679 30147.2227483993
 797967.897940365 -977122.406626982 -5335.47027761061
 933620.909346056 -847412.698092997 -42345.5742852052
 1046386.86990308 -700908.613918617 -73150.9695634503
 1133414.14722133 -546136.762386306 -93039.9837043524
 1196194.15703959 -388223.971299592 -99755.2890410861
 1236963.12454328 -229901.523867379 -92827.5215791986
 1257340.41587199 -72682.7367889227 -73223.8301830087
 1258103.39702444 82797.0700732577 -43242.5542932423
 1239088.78360207 236999.348951871 -6302.84593620683
 1198952.84897337 391077.699742078 33462.3612739636
 1135517.22060833 545000.470842251 71586.0279845852
 1048198.15999304 694324.055446120 103654.012633453
 944609.244348330 826640.703811677 126205.995152236
 853748.896843643 918469.898852034 138113.348232359
 477068.259478260 -1166521.11324383 56425.1634796298
 577690.969799920 -1121015.01659141 33880.7748899581
 716088.643287280 -1038633.12455346 -2778.21062030302
 858134.856377752 -923670.684546257 -44569.7845893194
 986458.261417015 -781966.387410792 -83535.0127837898
 1092784.86472057 -620101.608867300 -113334.306530643
 1173629.93311391 -444276.689168775 -129462.096689409
 1227630.95332127 -260263.568134209 -129362.082808356
 1254349.69823760 -73720.2455977823 -112790.029874972
 1254031.18465242 110436.066965610 -82213.7090233309
 1227210.71756471 289313.239586720 -42439.7810207443
 1173957.62218551 461922.718983948 577.856356380532