# OOMMF OVF 2.0
#
# Segment count: 1
#
# Begin: Segment
# Begin: Header
#
# Title: Oxs_MinDriver::Magnetization
# Desc: Oxs vector field output
# Desc:  MIF source file: C:/Users/grl31/Documents/GitHub/phd-work/Skyrmions/stdprob3/drive-75/stdprob3.mif
# Desc:  Iteration: 543, State id: 1151
# Desc:  Stage: 0, Stage iteration: 543
# Desc:  Stage simulation time: -1 s
# Desc:  Total simulation time: -2 s
# meshunit: m
# meshtype: rectangular
# xbase: 3.1249999999999999e-09
# ybase: 3.1249999999999999e-09
# zbase: 3.1249999999999999e-09
# xnodes: 16
# ynodes: 16
# znodes: 16
# xstepsize: 6.2499999999999997e-09
# ystepsize: 6.2499999999999997e-09
# zstepsize: 6.2499999999999997e-09
# xmin: 0
# ymin: 0
# zmin: 0
# xmax: 9.9999999999999995e-08
# ymax: 9.9999999999999995e-08
# zmax: 9.9999999999999995e-08
# valuedim: 3
# valuelabels: Magnetization_x Magnetization_y Magnetization_z
# valueunits: A/m A/m A/m
#
# End: Header
#
# Begin: Data Text
 501892.101143269 -1157377.09414188 -11489.6337909144
 608587.468021614 -1104335.13195998 -40182.5957961961
 744483.877929739 -1015911.13357302 -72234.0300968835
 879033.566395752 -899394.281170879 -99696.2740810137
 997994.328305637 -762601.914659465 -118300.766466039
 1095832.07203929 -612336.988908290 -125478.734547930
 1171116.19799506 -453456.476347678 -120056.260856675
 1223665.90771195 -289403.345681366 -102161.052906099
 1253408.46046386 -123069.524802705 -73284.0652625291
 1260305.16970889 43108.4435232378 -36358.9359167423
 1244344.99649158 207689.983135405 4453.26066398332
 1205248.24095518 370093.917550064 44233.4803721422
 1142705.58066118 528907.902092334 77651.9024173366
 1058568.75067021 679069.469296217 99228.4580813933
 962249.046769587 809147.515912273 104434.191733233
 880170.869661284 898861.707102185 94320.2132313035
 447938.691702447 -1179196.97393025 19870.9855969129
 538962.584135985 -1140625.61376904 -6478.65992394880
 667456.922346807 -1069781.88003572 -40217.1216961877
 805433.275423506 -968169.033546882 -73995.8934023521
 936852.080648220 -838631.937077209 -102733.071686692
 1052227.22685305 -685161.002341730 -122154.389434690
 1145620.37337464 -512321.444791329 -128957.854490674
 1212792.32830142 -325540.780228571 -121274.068705299
 1250742.75410216 -131577.516050202 -99394.9256750254
 1258269.22956212 62432.2789057109 -66409.2418774614
 1235996.88747421 251175.827075670 -27781.8099818400
 1185327.86446860 431794.516029320 10038.9521500938
 1108083.09136586 601697.652042286 40758.1780116716
 1008752.87185522 755318.891235326 58825.5640502552
 900015.121257735 881961.481082093 60548.8093513025
 812062.286170513 964238.458713657 48461.0053133779
 368418.237837558 -1205883.29147034 40778.9198028217
 442230.395779362 -1181395.85558772 16897.9397542940
 556742.187637352 -1131927.78385898 -18084.7878568404
 692860.936073146 -1052610.70292651 -59193.4309477049
 836722.127856715 -938666.296814641 -101740.330735521
 976130.816058684 -786868.960522715 -139840.265393989
 1098684.75335945 -597249.628295078 -166535.657310490
 1191524.26809455 -375721.649305514 -175078.815691236
 1243725.29812885 -136000.820825192 -161865.964452495
 1250594.44010627 103619.900490414 -129714.661918373
 1214924.45531425 328450.168523477 -87341.2021627629
 1143358.73304993 531276.139672058 -45010.0199129677
 1043455.90514923 708959.768450902 -11191.5881895015
 925141.273947590 857666.961799727 8392.66315369801
 805510.733479936 970863.413601657 11230.3738721852
 715738.717209412 1038877.63349021 884.443414686992
 278626.932885911 -1229576.01936211 45379.2441450181
 335964.681552055 -1215785.40725963 23302.5140942869
 432185.884494661 -1185153.83356068 -13235.6699469792
 558364.264682516 -1129546.49813317 -62477.8952877885
 707279.246900982 -1037516.10735693 -121925.488709507
 868929.492511692 -895574.523929159 -185626.614609509
 1026375.20818308 -692406.526916917 -242232.459486627
 1154181.53765784 -428370.104368376 -275523.978506715
 1225436.69910418 -126363.965853882 -271820.667980356
 1227827.71772489 173192.461548928 -232363.718699920
 1170303.28144962 437862.375299484 -173828.077836413
 1071277.40305414 656260.386135042 -115049.824921262
 947949.983994676 829607.543700104 -68495.1253690968
 815934.736386350 961354.231683090 -39974.7182867655
 693673.961511633 1053296.82044851 -30523.3365274356
 608039.957876550 1104782.44545230 -35952.5905169754
 186323.926246233 -1247200.41694288 36386.0605815414
 227777.981824201 -1240737.88504168 15366.2792287271
 302700.530981875 -1224484.22156563 -23668.7684311693
 410600.939728118 -1190015.21351186 -82583.8411776554
 552668.423756353 -1122300.42908020 -162937.997987045
 726399.924593451 -997723.261700367 -261612.066869176
 916438.694005358 -787011.709955345 -363733.583054785
 1084513.70480395 -474024.316678772 -436669.671729766
 1177640.35287849 -91499.9862954804 -443103.128739925
 1170080.32193725 279255.846064564 -380102.148866515
 1084778.37189585 577831.765238708 -284456.966634765
 959695.794721784 795845.705080347 -192777.141325007
 821954.586617156 949122.230034956 -122910.865717585
 688618.255198954 1054085.75050414 -79104.7413865025
 574410.643550246 1121635.76194234 -59456.3791966582
 498603.320618085 1157381.98538031 -58404.6188645401
 93957.0864091819 -1257929.97799560 18266.5621407845
 119514.319929991 -1255890.44073279 -2226.90966013578
 170263.185531564 -1249228.97959926 -44573.9284893994
 251355.540446113 -1230952.80568753 -114564.450751477
 371053.180459936 -1185586.41533997 -219667.521383640
 536810.309450930 -1082137.03634121 -363818.027542363
 742863.138775419 -869551.853044742 -532525.457451700
 945490.422027170 -501012.680344590 -668269.097675306
 1059864.72447054 -18268.7897691848 -684033.952419253
 1041468.09239092 427299.506645228 -569481.145492385
 935507.079618855 741425.641409980 -408244.967099112
 800902.367260551 937416.763542871 -267122.893935000
 668102.750296363 1057085.78766594 -166606.672975833
 549553.256733148 1130737.99298144 -104748.461378911
 453480.386588783 1174909.24115347 -74116.4283435979
 391777.092969551 1197342.26012494 -66570.6576667277
 1273.43769040383 -1261557.38322360 -4558.30115668443
 10277.3475690257 -1261284.52211204 -24600.0269614763
 33588.9141316183 -1259166.00434691 -70158.3157113218
 78909.3784155798 -1250025.33616402 -150862.188321175
 157554.333941953 -1219717.66687919 -281095.848204553
 283935.553640833 -1133388.19116628 -475774.358727381
 466154.265137083 -919190.837434385 -727556.070959575
 672429.311900734 -489417.445831841 -948608.884172554
 802463.962679836 104089.875312116 -967866.890319447
 793219.932186594 609357.206064411 -768788.244914179
 702083.749643959 910102.530531651 -519943.480894528
 593230.799303085 1065391.01702285 -323370.732324656
 491554.988398389 1145727.13264383 -192957.150226058
 403716.898708848 1189665.23679655 -115146.519589889
 333612.752218090 1214322.50271757 -75318.1377237322
 288718.143800745 1226501.06098381 -62341.0921045250
 -92802.5729855581 -1257835.86347646 -28036.6531285976
 -101331.213587556 -1256608.97916962 -47066.8624630649
 -108575.782773974 -1253349.84901725 -94206.6148548252
 -106940.182430604 -1243801.81724384 -181852.323937826
 -87142.4149917333 -1214609.77109149 -329664.578621114
 -35831.4324937953 -1128786.85409068 -562232.849801986
 63808.1974539945 -900416.702243026 -881321.568542617
 212604.686773916 -411537.029560901 -1173450.44692177
 349387.655928654 265076.984584941 -1182882.87207440
 401298.317949221 787492.580015368 -900202.492415356
 386923.367799728 1050852.64413734 -580989.207024566
 347024.560789123 1162336.57489168 -346550.244260709
 300702.765025796 1209117.17465987 -197896.275779317
 255373.641692473 1230474.10252361 -110757.469573791
 216012.394055112 1241220.97337936 -65257.7334630047
 189237.852991417 1246351.27259629 -48445.5489364997
 -189237.827452722 -1246351.27884212 -48445.4880100723
 -216012.366401962 -1241220.98122433 -65257.6757851531
 -255373.606782360 -1230474.11503625 -110757.411055276
 -300702.724898036 -1209117.19794589 -197896.194479151
 -347024.518731412 -1162336.62272961 -346550.125926547
 -386923.322909052 -1050852.74016973 -580989.063223862
 -401298.279734851 -787492.776591318 -900202.337487134
 -349387.645486181 -265077.301988489 -1182882.80403051
 -212604.700780961 411536.724706300 -1173450.55129852
 -63808.2079266739 900416.527840295 -881321.745965777
 35831.4391443571 1128786.77662216 -562233.004910561
 87142.4289567247 1214609.73847036 -329664.695118297
 106940.202116881 1243801.80435472 -181852.400517816
 108575.802324923 1253349.84280598 -94206.6749581399
 101331.231464661 1256608.97585280 -47066.9125287576
 92802.5864623663 1257835.86132204 -28036.7051753369
 -288718.105585589 -1226501.07322447 -62341.0282658709
 -333612.712961068 -1214322.51748927 -75318.0734501085
 -403716.849617243 -1189665.25970423 -115146.455034275
 -491554.928275137 -1145727.17156218 -192957.072302373
 -593230.735732881 -1065391.08216131 -323370.634337661
 -702083.683306119 -910102.646395780 -519943.367663889
 -793219.877318388 -609357.406909785 -768788.142331903
 -802463.951573097 -104090.153797734 -967866.869578150
 -672429.350453273 489417.189765181 -948608.988957145
 -466154.316151089 919190.687736536 -727556.227401771
 -283935.583751153 1133388.12574081 -475774.496614288
 -157554.345067391 1219717.64076860 -281095.955266578
 -78909.3774162783 1250025.32709807 -150862.263963137
 -33588.9097516483 1259166.00154107 -70158.3681659850
 -10277.3373070403 1261284.52135336 -24600.0701475450
 -1273.42784212882 1261557.38306122 -4558.34884778481
 -391777.039821502 -1197342.28093034 -66570.5962432011
 -453480.331678852 -1174909.26586933 -74116.3725081929
 -549553.195674257 -1130738.02752110 -104748.408870316
 -668102.683921956 -1057085.83977007 -166606.608550912
 -800902.295074019 -937416.846809131 -267122.818161514
 -935507.014461275 -741425.764534021 -408244.892800691
 -1041468.04800805 -427299.690740766 -569481.088527172
 -1059864.72601017 18268.5705849342 -684033.955887510
 -945490.469219144 501012.486798224 -668269.176011416
 -742863.197238858 869551.732200449 -532525.573220868
 -536810.354602768 1082136.97831851 -363818.133503373
 -371053.206738323 1185586.39067248 -219667.610130311
 -251355.553436679 1230952.79671150 -114564.518694179
 -170263.184338420 1249228.97798480 -44573.9782939910
 -119514.310311231 1255890.44157229 -2226.95243516212
 -93957.0762035381 1257929.97935591 18266.5209573925
 -498603.255358769 -1157382.01549305 -58404.5792540710
 -574410.576502239 -1121635.79858055 -59456.3357758079
 -688618.186821916 -1054085.79839363 -79104.6984818469
 -821954.518147844 -949122.295468167 -122910.818321810
 -959695.731808441 -795845.793031429 -192777.091434099
 -1084778.32213204 -577831.881810088 -284456.919612034
 -1170080.29819582 -279255.989850941 -380102.116312588
 -1177640.36366987 91499.8252602961 -443103.133312996
 -1084513.74193800 474024.180659788 -436669.727158179
 -916438.742040458 787011.618678305 -363733.659525221
 -726399.961084284 997723.214404294 -261612.145923057
 -552668.446328987 1122300.40809888 -162938.065940204
 -410600.948321862 1190015.20632254 -82583.9020467804
 -302700.528334155 1224484.22126800 -23668.8176905422
 -227777.973085230 1240737.88713616 15366.2396515564
 -186323.912194707 1247200.42022778 36386.0199397951
 -608039.888419445 -1104782.48456133 -35952.5634178098
 -693673.891436539 -1053296.86743823 -30523.3075379729
 -815934.666682592 -961354.292155714 -39974.6867193073
 -947949.924796220 -829607.613945800 -68495.0938458359
 -1071277.35442038 -656260.472325970 -115049.786125481
 -1170303.24917239 -437862.474492205 -173828.045283465
 -1227827.70630542 -173192.568824412 -232363.699083416
 -1225436.70894589 126363.859595335 -271820.673008874
 -1154181.56127163 428370.016850669 -275524.015655422
 -1026375.23667557 692406.467360331 -242232.508998489
 -868929.513471439 895574.492168916 -185626.669726178
 -707279.260252587 1037516.09294558 -121925.533890314
 -558364.267314973 1129546.49404925 -62477.9455952732
 -432185.871720513 1185153.83770270 -13235.7161758979
 -335964.663057931 1215785.41320129 23302.4707334635
 -278626.909483568 1229576.02618509 45379.2029619904
 -715738.648400098 -1038877.68088250 884.460032878803
 -805510.669568032 -970863.466378668 11230.3954610091
 -925141.214951795 -857667.025140516 8392.69343462076
 -1043455.85722028 -708959.839482739 -11191.5571859244
 -1143358.69761634 -531276.218523909 -45009.9892796908
 -1214924.43528599 -328450.249468190 -87341.1763617733
 -1250594.43511666 -103619.979359141 -129714.647021104
 -1243725.30582677 136000.754715936 -161865.960849571
 -1191524.28197970 375721.596030566 -175078.835522594
 -1098684.76592712 597249.596035005 -166535.690092669
 -976130.824929700 786868.942613569 -139840.304244598
 -836722.129850173 938666.291009663 -101740.367898425
 -692860.926504076 1052610.70698876 -59193.4707166709
 -556742.163279560 1131927.79521966 -18084.8266485625
 -442230.368565545 1181395.86628564 16897.9040282814
 -368418.207039224 1205883.30218748 40778.8811321261
 -812062.212007387 -964238.520119974 48461.0262527099
 -900015.062689191 -881961.539257441 60548.8325417646
 -1008752.82491171 -755318.951360766 58825.5970380322
 -1108083.05615897 -601697.714722451 40758.2098494917
 -1185327.84034583 -431794.581542701 10038.9825388570
 -1235996.87543504 -251175.889168451 -27781.7842155718
 -1258269.22778011 -62432.3319020312 -66409.2258189360
 -1250742.75867952 131577.474388508 -99394.9232266719
 -1212792.33584070 325540.747068696 -121274.082321699
 -1145620.37848539 512321.427355364 -128957.878357649
 -1052227.22660113 685160.997985049 -122154.416041273
 -936852.072811123 838631.942733656 -102733.096980622
 -805433.256854582 968169.047007164 -73995.9194065126
 -667456.892440240 1069781.89771658 -40217.1477218501
 -538962.555663865 1140625.62706946 -6478.68687484254
 -447938.663545890 1179196.98506457 19870.9595720698
 -880170.797519649 -898861.775269897 94320.2368064671
 -962248.990664230 -809147.579029561 104434.219656314
 -1058568.70810907 -679069.530291314 99228.4947037534
 -1142705.55310071 -528907.955728796 77651.9426578535
 -1205248.22294776 -370093.972453638 44233.5116593182
 -1244344.98816235 -207690.032649877 4453.27880324487
 -1260305.16880419 -43108.4826606415 -36358.9208735087
 -1253408.46379095 123069.495210383 -73284.0580537157
 -1223665.91244450 289403.324241519 -102161.056955615
 -1171116.19979418 453456.467249598 -120056.277670565
 -1095832.06746644 612336.993559407 -125478.751786117
 -997994.318131160 762601.925113396 -118300.784909553
 -879033.544615136 899394.301245061 -99696.2850271412
 -744483.842811164 1015911.15845961 -72234.0420392650
 -608587.436362929 1104335.14882809 -40182.6116994741
 -501892.075271517 1157377.10521467 -11489.6485370466
 513350.330380850 -1152288.52808476 15875.0515298541
 626851.679344392 -1094773.28398648 -8823.81388812470
 767921.767662478 -1000037.82217101 -42070.7011654109
 903523.777159872 -877360.983242316 -73701.5611082126
 1019937.83207835 -736036.583941161 -97603.2618025872
 1112983.65378355 -583654.568495051 -110291.259873261
 1182613.83614241 -425241.934670895 -110196.381432657
 1229801.48917187 -263974.333304140 -97238.2615344455
 1255320.29021221 -102151.802211377 -72700.8198403050
 1259592.46752924 58615.9442011203 -39248.1559817620
 1242620.80818592 217812.827290401 -728.182736248082
 1203697.94467564 375760.962296184 38267.3244013756
 1141655.10443669 531858.974069868 72794.8152957548
 1057059.65194786 681592.879189883 98007.5006336807
 958016.857145219 813342.907765852 110573.264090102
 871693.626759431 905037.461782410 112280.206431936
 457465.144019447 -1175258.88808133 32274.1213986583
 553760.395611498 -1133498.56375326 8936.50605321084
 687417.473265198 -1057519.99940606 -25653.4446973733
 827628.510411567 -950082.999874982 -62632.0446851267
 958028.836563475 -815243.768125543 -95434.6779962848
 1069743.22737087 -658065.896711723 -118945.928884127
 1157877.43146365 -483856.265872374 -129431.057332180
 1219429.57540133 -298284.537267456 -124768.891886704
 1252563.25851331 -107722.733088709 -105026.316308719
 1256802.67653341 81631.3030735568 -73025.9785003606
 1232827.09783228 265580.202180726 -33969.6037514852
 1181507.62586104 442215.615060042 5874.58494068117
 1103756.40935313 609626.040504464 40339.9364115382
 1002938.81374055 762591.870120701 64162.3443887207
 890859.163753377 890155.938072199 74443.1809529440
 799137.387835921 973369.210152249 74035.4442772016
 376144.980624172 -1203365.67630455 44445.8497757408
 454124.414897925 -1176784.01588378 22356.8037299058
 573600.756529022 -1123535.60087026 -14119.3698655645
 713088.365406638 -1039034.68502893 -58833.1313756834
 857718.283663299 -919054.856099829 -105862.874833254
 994860.239671030 -761437.968824396 -148373.697376704
 1112369.72884222 -567679.570794096 -178669.869249026
 1198595.97826262 -344975.603292282 -189496.556551190
 1244480.70537002 -107247.879357680 -176960.722348104
 1246767.25340951 128367.719010020 -143675.243033793
 1208419.93585116 348733.582858697 -98262.7993850132
 1135333.36712055 547676.175310535 -51170.1418690915
 1034097.35920017 722541.339664471 -11229.2070090120
 913784.664597211 869656.363458823 15646.9537448243
 791074.995537948 982344.544961993 27367.4503197696
 698613.494952201 1050102.64027656 27803.9650737317
 285908.337787759 -1227907.66608916 45261.6489078800
 346869.896084833 -1212711.78495872 23681.9072559258
 447830.762012499 -1179302.70973634 -15561.4370414836
 578049.689150827 -1119165.61013244 -69830.6872977718
 729026.690117347 -1020627.87393777 -135603.314696831
 889346.436265061 -870796.409172781 -205732.741665930
 1041135.25953039 -660348.834034693 -267443.862652628
 1159927.66715117 -392552.389793945 -303347.752856778
 1222094.85915398 -91704.5849313264 -299372.435689981
 1218275.73265336 203569.576930208 -256735.462091469
 1157551.28844598 463299.600100656 -192296.453640161
 1056965.87029268 677168.508185765 -125759.260004432
 932580.504168054 846664.001749201 -70732.6113376304
 799330.704336502 975440.105297782 -33711.3779089139
 675306.690085500 1065490.93413550 -15471.7329271926
 588292.659073609 1115945.32736945 -11278.4981867429
 194481.426499484 -1245981.98869983 35430.0649349203
 239281.703868530 -1238591.37228870 13605.4990616468
 318788.663255935 -1220267.76956976 -29492.1963863253
 431091.721671107 -1181794.46973275 -95242.7936102927
 575922.721313160 -1107173.67985615 -184469.218646350
 748386.886197467 -972560.514728328 -292562.035606095
 930509.962083925 -751015.038288260 -402090.852477905
 1084553.32485456 -432023.437623508 -478172.840937085
 1164036.77559910 -51825.4377003973 -483613.419974021
 1149291.16266899 312609.908790368 -415877.745564724
 1062141.29125712 605257.706751998 -311558.047148410
 937338.723091061 818083.784579585 -209008.302516709
 800425.028574544 966636.888235639 -128383.530300873
 667814.270831804 1067678.17491014 -75078.9278885899
 553742.072121360 1132572.25776594 -46895.9424754126
 477845.283807282 1166967.25218647 -37426.5679224207
 103926.920519165 -1257145.50215831 18270.5367596527
 132646.863295036 -1254566.08672797 -4263.16889218985
 187925.855095746 -1246410.72149149 -51900.0699089432
 273739.956385447 -1224587.73112363 -130386.947117105
 396662.866416976 -1171890.90656624 -246738.129262965
 560608.934622329 -1055925.24528424 -402851.001875376
 754638.988771544 -828269.385994750 -579688.926725960
 934465.045315631 -452935.889784213 -716361.354169523
 1028417.72801927 21284.8692897108 -730378.916695959
 1003979.40265054 456100.368045476 -612819.095852282
 900629.712658192 764593.701623353 -442506.523154263
 770279.398937246 956569.910942949 -288432.113278718
 641404.268323265 1072090.25202872 -175420.885303435
 526040.336488270 1141991.20575254 -103378.340527061
 432004.180647405 1183535.24341410 -64545.6924887123
 371318.407719276 1204656.91793426 -49737.1197488447
 13585.9705679758 -1261490.81354959 -2404.09081903264
 25583.2956175665 -1261046.71436407 -25614.6461203191
 53456.9449141703 -1258053.43266603 -77416.7069606155
 103987.969223699 -1246028.25642487 -167778.179053426
 186757.231239550 -1208358.81580050 -310709.091878400
 311863.478837650 -1107315.49408369 -517825.258217899
 479372.507702677 -873892.618087062 -773345.409135363
 653758.167170111 -440044.737787444 -985144.821091250
 755290.095672889 130750.518122284 -1001993.31550073
 741506.297319192 620570.767177212 -810314.608581149
 657666.972719474 920857.546406521 -557714.051409069
 556848.942292889 1077058.56757495 -348444.440907942
 461837.868741331 1155992.60073303 -204783.595451145
 379183.194565029 1197581.29057710 -116484.283652820
 312571.582263184 1220290.94768425 -68836.3267491956
 269536.746922800 1231435.04236613 -49670.0051335541
 -77971.0148494219 -1258946.26680254 -22896.4858932556
 -83723.5800976220 -1257939.65366311 -46126.1400566363
 -86398.9277213249 -1254610.79519275 -100181.878567779
 -78943.3964781469 -1243414.69790536 -198083.972356123
 -53316.3574880552 -1208220.94485914 -359038.918986302
 454.992603399034 -1108262.62049789 -602746.371127879
 91283.0829510681 -860836.418212777 -917702.288743195
 211284.762115643 -376086.881409955 -1185523.86641857
 313784.203741326 261746.518883138 -1193556.72854454
 353222.799475119 770445.254278325 -934450.210021871
 342246.379932113 1044226.55196319 -619683.592260913
 309753.358894555 1164301.52798873 -374171.403898795
 270718.559835142 1213757.24736740 -212259.833088701
 231424.563617346 1234848.65402698 -114633.781762780
 196368.669613013 1244659.91706462 -61728.9831931374
 172022.235100581 1249151.35179425 -39732.6296705991
 -172022.213901931 -1249151.35658580 -39732.5708090229
 -196368.647171642 -1244659.92344623 -61728.9259080306
 -231424.535036783 -1234848.66536126 -114633.717367476
 -270718.524489527 -1213757.26993553 -212259.749118413
 -309753.320295105 -1164301.57447893 -374171.291190258
 -342246.339743776 -1044226.64863820 -619683.451549887
 -353222.758353400 -770445.437193868 -934450.074753766
 -313784.175054044 -261746.802723326 -1193556.67384030
 -211284.752120729 376086.605806447 -1185523.95563026
 -91283.0843230792 860836.249957202 -917702.446436229
 -454.991002504999 1108262.53867013 -602746.521584805
 53316.3705875990 1208220.90990047 -359039.034682290
 78943.4100337489 1243414.68385447 -198084.055154098
 86398.9423565607 1254610.78936346 -100181.938948225
 83723.5923291695 1257939.65085027 -46126.1945662111
 77971.0255702338 1258946.26528333 -22896.5329174754
 -269536.713692453 -1231435.05223944 -49669.9406772342
 -312571.548404654 -1220290.95979641 -68836.2657762708
 -379183.151799654 -1197581.31055969 -116484.217421780
 -461837.817387781 -1155992.63477514 -204783.519100210
 -556848.884138314 -1077058.62970361 -348444.341802029
 -657666.908742822 -920857.657638483 -557713.943193266
 -741506.244340631 -620570.955957968 -810314.512485257
 -755290.072374099 -130750.774447688 -1001993.29961503
 -653758.186469302 440044.498418421 -985144.915205374
 -479372.543957060 873892.470186427 -773345.553792452
 -311863.503475496 1107315.42516023 -517825.390765239
 -186757.244052082 1208358.78639168 -310709.198549150
 -103987.976183805 1246028.24502600 -167778.259394912
 -53456.9427880759 1258053.42900983 -77416.7678433326
 -25583.2891341052 1261046.71351863 -25614.6942184751
 -13585.9659562646 1261490.81352022 -2404.13229420919
 -371318.360313061 -1204656.93500261 -49737.0602617353
 -432004.131956168 -1183535.26424921 -64545.6363381377
 -526040.280017326 -1141991.23695099 -103378.283238736
 -641404.204416142 -1072090.30142096 -175420.817109515
 -770279.334056457 -956569.985162439 -288432.040402631
 -900629.648409532 -764593.820032071 -442506.449324121
 -1003979.35885016 -456100.536161462 -612819.042487252
 -1028417.71979017 -21285.0772697846 -730378.922221987
 -934465.074529489 452935.704619550 -716361.433135775
 -754639.037408396 828269.263832641 -579689.037957781
 -560608.975611244 1055925.18124223 -402851.112697530
 -396662.892759879 1171890.87837443 -246738.220811317
 -273739.969859966 1224587.72065403 -130387.017158073
 -187925.856293589 1246410.71896506 -51900.1262451843
 -132646.862495936 1254566.08666007 -4263.21373690184
 -103926.918332232 1257145.50289076 18270.4988015097
 -477845.223866883 -1166967.27812195 -37426.5245410178
 -553742.009127981 -1132572.29045346 -46895.8968659989
 -667814.206217806 -1067678.21858790 -75078.8814887661
 -800424.967995111 -966636.945496024 -128383.476861687
 -937338.663082781 -818083.866482954 -209008.251055883
 -1062141.24129121 -605257.815805213 -311558.005633030
 -1149291.13309837 -312610.052652723 -415877.719144555
 -1164036.77648196 51825.2849767989 -483613.434215296
 -1084553.35615848 432023.299786685 -478172.894469928
 -930510.003995573 751014.943810236 -402090.931950497
 -748386.920516349 972560.463994200 -292562.116471693
 -575922.747264640 1107173.65418410 -184469.291706587
 -431091.734579577 1181794.45981379 -95242.8582600656
 -318788.662901431 1220267.76847326 -29492.2455870051
 -239281.700866512 1238591.37335254 13605.4550111680
 -194481.419870486 1245981.99082954 35430.0264262075
 -588292.595412502 -1115945.36121064 -11278.4703856349
 -675306.622685386 -1065490.97731548 -15471.7011186566
 -799330.639363786 -975440.159873241 -33711.3393341319
 -932580.446655858 -846664.068256627 -70732.5735234696
 -1056965.82387255 -677168.587737478 -125759.221793116
 -1157551.25488668 -463299.696815155 -192296.422640168
 -1218275.71746413 -203569.685919102 -256735.447749279
 -1222094.86556187 91704.4764103325 -299372.442774181
 -1159927.68858835 392552.295741697 -303347.792596174
 -1041135.28720507 660348.769123494 -267443.915190579
 -889346.458694619 870796.371745775 -205732.803122615
 -729026.704510184 1020627.85564326 -135603.375013337
 -578049.689039726 1119165.60689587 -69830.7400893766
 -447830.754344019 1179302.71199352 -15561.4866689125
 -346869.883953219 1212711.78918750 23681.8683992886
 -285908.321852035 1227907.67117460 45261.6116071007
 -698613.424465613 -1050102.68655408 27803.9883340819
 -791074.932485455 -982344.594981733 27367.4774552298
 -913784.608687924 -869656.421577777 15646.9886094986
 -1034097.31230426 -722541.407282298 -11229.1747952842
 -1135333.33251338 -547676.249978081 -51170.1105428174
 -1208419.91444635 -348733.664231358 -98262.7738271438
 -1246767.24712135 -128367.794904705 -143675.229791728
 -1244480.71078698 107247.804898743 -176960.729379422
 -1198595.99120989 344975.542584067 -189496.585175972
 -1112369.74610760 567679.525459030 -178669.905798586
 -994860.253036774 761437.942780843 -148373.741410795
 -857718.289619245 919054.845769464 -105862.916260876
 -713088.360441048 1039034.68601128 -58833.1742123317
 -573600.735639340 1123535.61106390 -14119.4073614859
 -454124.388503692 1176784.02676159 22356.7672947911
 -376144.954346721 1203365.68577575 44445.8157300462
 -799137.317271262 -973369.266462105 74035.4656260669
 -890859.103235965 -890155.996082546 74443.2115028388
 -1002938.76247987 -762591.934502871 64162.3804536394
 -1103756.37215770 -609626.105423382 40339.9730608636
 -1181507.60136614 -442215.680101651 5874.61532526428
 -1232827.08449100 -265580.266791476 -33969.5827962122
 -1256802.67353607 -81631.3599022740 -73025.9665601509
 -1252563.26304715 107722.685194262 -105026.311361280
 -1219429.58433717 298284.496712534 -124768.901506675
 -1157877.44034009 483856.236819521 -129431.086533692
 -1069743.23373435 658065.880962506 -118945.958786208
 -958028.836381974 815243.764557736 -95434.7102960191
 -827628.496654566 950083.010076887 -62632.0717164881
 -687417.445449930 1057520.01682728 -25653.4718835839
 -553760.363679252 1133498.57954714 8936.48148805551
 -457465.112202226 1175258.90113869 32274.0969051209
 -871693.550731749 -905037.531423804 112280.235330786
 -958016.800565692 -813342.969717290 110573.298604534
 -1057059.61018680 -681592.938400415 98007.5392679768
 -1141655.07414654 -531859.033607575 72794.8553431365
 -1203697.92551884 -375761.020516223 38267.3552940257
 -1242620.79906736 -217812.879375590 -728.163620910056
 -1259592.46592044 -58615.9881064543 -39248.1420416179
 -1255320.29331651 102151.767296122 -72700.8152978922
 -1229801.49483577 263974.306118114 -97238.2637037989
 -1182613.84209006 425241.913361805 -110196.399833844
 -1112983.65578028 583654.560523027 -110291.281911037
 -1019937.82862927 736036.585830948 -97603.2835937762
 -903523.759987707 877360.999068466 -73701.5832273245
 -767921.738491383 1000037.84389885 -42070.7171495214
 -626851.645549751 1094773.30322254 -8823.82806571828
 -513350.294235070 1152288.54437793 15875.0377354401
 535355.728642729 -1141226.84748971 50447.5697835657
 652726.725921747 -1079238.63156570 27225.5086753049
 797162.487460314 -977761.913913856 -7939.72320370451
 932722.448998861 -848284.903953224 -44620.4636639973
 1045581.66503402 -701897.078408558 -75159.1909561345
 1132800.23215785 -547093.728250423 -94876.3271375849
 1195788.53120001 -389017.286892120 -101512.413371817
 1236730.18159373 -230439.610596750 -94580.5197813638
 1257219.91386025 -72922.7426505124 -75031.9446402539
 1258032.74884141 82846.4489235621 -45160.8199907543
 1239023.91194313 237273.446245443 -8395.72861086095
 1198893.77330295 391452.570594805 31113.2805903784
 1135539.19236029 545302.210453489 68888.8438518255
 1048473.10763277 694367.736814798 100533.673764274
 945367.959513882 826308.655661081 122649.327854208
 855085.243423294 917803.349341128 134222.462117510
 477237.571401613 -1166581.78065246 53671.9704443505
 577566.057341332 -1121155.90217349 31246.1733287573
 715670.552716221 -1038911.93920511 -5203.21735878354
 857543.916417771 -924111.260072161 -46757.2597750130
 985837.685157021 -782534.304948739 -85519.3020410813
 1092245.53399404 -620710.184973578 -115186.764253094
 1173225.31389892 -444817.565624898 -131259.769378424
 1227358.93746813 -260642.438285069 -131167.789113337
 1254171.44332888 -73883.4563687923 -114650.148418159
 1253897.19934605 110485.123411513 -84168.1762652829
 1227091.33058583 289504.592654235 -44535.2461781045