# OOMMF OVF 2.0
#
# Segment count: 1
#
# Begin: Segment
# Begin: Header
#
# Title: Oxs_MinDriver::Magnetization
# Desc: Oxs vector field output
# Desc:  MIF source file: C:/Users/grl31/Documents/GitHub/phd-work/Skyrmions/stdprob3/drive-57/stdprob3.mif
# Desc:  Iteration: 502, State id: 1071
# Desc:  Stage: 0, Stage iteration: 502
# Desc:  Stage simulation time: -1 s
# Desc:  Total simulation time: -2 s
# meshunit: m
# meshtype: rectangular
# xbase: 3.1249999999999999e-09
# ybase: 3.1249999999999999e-09
# zbase: 3.1249999999999999e-09
# xnodes: 16
# ynodes: 16
# znodes: 16
# xstepsize: 6.2499999999999997e-09
# ystepsize: 6.2499999999999997e-09
# zstepsize: 6.2499999999999997e-09
# xmin: 0
# ymin: 0
# zmin: 0
# xmax: 9.9999999999999995e-08
# ymax: 9.9999999999999995e-08
# zmax: 9.9999999999999995e-08
# valuedim: 3
# valuelabels: Magnetization_x Magnetization_y Magnetization_z
# valueunits: A/m A/m A/m
#
# End: Header
#
# Begin: Data Text
 501892.389582476 -1157376.99771603 -11486.7469713559
 608588.197469300 -1104334.82478477 -40179.9898906081
 744484.940763881 -1015910.51818646 -72231.7307896117
 879034.740416063 -899393.360112165 -99694.2317627688
 997995.402252857 -762600.799048507 -118298.898100071
 1095832.91339857 -612335.851234441 -125476.938615659
 1171116.76892003 -453455.482684403 -120054.444718694
 1223666.24170922 -289402.610838448 -102159.134002240
 1253408.62310612 -123069.101413099 -73281.9945113013
 1260305.23099618 43108.5531736708 -36356.6814476134
 1244345.00665536 207689.869006729 4455.74267641846
 1205248.19136869 370093.746517333 44236.2623896982
 1142705.37174829 528907.890819415 77655.0534448582
 1058568.17201766 679069.851823837 99232.0132522351
 962247.835380492 809148.448761310 104438.125661446
 880168.939657667 898863.157986772 94324.3966050089
 447938.653284450 -1179196.94201613 19873.7453053699
 538962.832696022 -1140625.51091944 -6476.08917538170
 667457.454310531 -1069781.63619022 -40214.7793034439
 805433.988054924 -968168.604631354 -73993.7484593901
 936852.825909823 -838631.349746459 -102731.069916382
 1052227.87711294 -685160.349569892 -122152.449515439
 1145620.86320904 -512320.843792618 -128955.890577891
 1212792.65329331 -325540.333188170 -121272.018637704
 1250742.95163767 -131577.283703181 -99392.7475268266
 1258269.35105069 62432.2998226401 -66406.9203041829
 1235996.96353486 251175.727219649 -27779.3287758988
 1185327.85979663 431794.466725722 10041.6240686559
 1108082.86732163 601697.867833847 40761.0832955611
 1008752.19664703 755319.547482294 58828.7163711678
 900013.754637148 881962.644989801 60552.1694532266
 812060.216129827 964240.027599828 48464.4763967966
 368417.917567111 -1205883.30533891 40781.4031070312
 442230.201672950 -1181395.89396612 16900.3363059269
 556742.166015581 -1131927.83120029 -18082.4902445455
 692861.083305498 -1052610.73045750 -59191.2179755138
 836722.413629681 -938666.276358149 -101738.169221791
 976131.176762589 -786868.896739034 -139838.106450749
 1098685.12862356 -597249.554119388 -166533.447585099
 1191524.62067345 -375721.600358696 -175076.521189596
 1243725.60896984 -136000.828600140 -161863.569501050
 1250594.70070866 103619.850382777 -129712.189423397
 1214924.64282186 328450.146785815 -87338.6756226335
 1143358.76340412 531276.291792775 -45007.4532146336
 1043455.60503067 708960.251535756 -11188.9673964356
 925140.428068563 857667.848068455 8395.33571074971
 805509.180518046 970864.670772108 11233.0791266217
 715736.541281100 1038879.13029160 887.151903488299
 278626.502718284 -1229576.03664783 45381.4169386231
 335964.258421487 -1215785.48269639 23304.6786497754
 432185.493467951 -1185154.00063002 -13233.4782076246
 558363.958262583 -1129546.77402984 -62475.6457436056
 707279.087524879 -1037516.49043742 -121923.153417798
 868929.535612116 -895574.985267851 -185624.187061802
 1026375.48348471 -692407.001542728 -242229.936290051
 1154182.01324894 -428370.491110923 -275521.384935853
 1225437.26530773 -126364.179818889 -271818.015909125
 1227828.22647245 173192.436416948 -232361.049155047
 1170303.60760900 437862.538954749 -173825.469699987
 1071277.42367056 656260.788786552 -115047.336144648
 947949.545729996 829608.238968494 -68492.7697267529
 815933.704418670 961355.200862525 -39972.4741185224
 693672.293543341 1053297.98135119 -30521.1823292174
 608037.788471316 1104783.70791964 -35950.4857434254
 186323.564364066 -1247200.41565791 36387.9576832193
 227777.548446972 -1240737.94047627 15368.2271307447
 302700.019072789 -1224484.38833866 -23666.6872878781
 410600.400123866 -1190015.55800429 -82581.5599562116
 552667.967218806 -1122301.01946269 -162935.479998059
 726399.732495550 -997724.116654975 -261609.339654372
 916438.955931242 -787012.715016566 -363730.748456689
 1084514.48051430 -474025.144305919 -436666.846737297
 1177641.38960375 -91500.2959416082 -443100.309471448
 1170081.19381722 279256.034476787 -380099.326495733
 1084778.83047017 577832.237628308 -284454.258256388
 959695.752106776 795846.354172388 -192774.673797365
 821954.001019603 949123.020888438 -122908.674821700
 688617.110312993 1054086.64496628 -79102.7888690337
 574408.990468446 1121636.70311463 -59454.5945585856
 498601.303014746 1157382.94014495 -58402.9229779880
 93956.9258648112 -1257929.96562113 18268.2400191863
 119514.049665492 -1255890.46959235 -2225.13788541127
 170262.769082376 -1249229.10743653 -44571.9364252515
 251355.007491867 -1230953.13005428 -114562.134832140
 371052.652801305 -1185587.07991421 -219664.825833739
 536810.036002146 -1082138.17586704 -363815.041604215
 742863.495449713 -869553.379229193 -532522.467806082
 945491.667665616 -501013.938873149 -668266.391754560
 1059866.40362505 -18268.9662267815 -684031.345962208
 1041469.35552150 427300.186512709 -569478.325342401
 935507.612427337 741426.521602388 -408242.147596301
 800902.245719475 937417.589717063 -267120.359032231
 668102.089625354 1057086.54431672 -166604.521492447
 549552.136818195 1130738.70484361 -104746.652481616
 453478.897257613 1174909.91575612 -74114.8468183602
 391775.349261463 1197342.91267036 -66569.1828707333
 1273.58325945732 -1261557.38852400 -4556.79329645671
 10277.3624420883 -1261284.55389211 -24598.3912761890
 33588.7512127246 -1259166.11528176 -70156.4026811287
 78909.0438198597 -1250025.63843350 -150859.858747474
 157553.917862201 -1219718.36617595 -281093.047047211
 283935.291863199 -1133389.55517220 -475771.265609938
 466154.629770537 -919192.859814231 -727553.282261157
 672430.773972281 -489419.029217789 -948607.030847606
 802465.984488829 104090.229077317 -967865.175976469
 793221.314233660 609358.662547877 -768785.664500998
 702084.239894566 910103.833038071 -519940.539004253
 593230.644856489 1065391.91597216 -323368.053931248
 491554.386046039 1145727.76393799 -192954.936240314
 403715.956690911 1189665.72997409 -115144.727006072
 333611.549382159 1214322.92708460 -75316.6236264541
 288716.762571270 1226501.45629134 -62339.7116174617
 -92802.0652935627 -1257835.93199119 -28035.2597288962
 -101330.846486899 -1256609.06625933 -47065.3276207603
 -108575.612758586 -1253350.00194342 -94204.7762137326
 -106940.230931792 -1243802.14865107 -181850.028699983
 -87142.6559985911 -1214610.51253345 -329661.783147069
 -35831.7777189689 -1128788.34598899 -562229.832527489
 63808.0270644549 -900418.967696551 -881319.266335063
 212605.186005823 -411538.505316854 -1173449.83891258
 349388.752605265 265078.267503962 -1182882.26065361
 401299.159121627 787494.842495510 -900200.138219385
 386923.683172438 1050854.23724754 -580986.115477912
 347024.470210390 1162337.45133409 -346547.395344869
 300702.368988029 1209117.65176645 -197893.962491878
 255372.996794113 1230474.40182021 -110755.631425848
 216011.551468211 1241221.20017046 -65256.2088896934
 189236.871160982 1246351.47532159 -48444.1686464313
 -189236.940183310 -1246351.46497751 -48444.1651536389
 -216011.635525789 -1241221.18546791 -65256.2102949905
 -255373.101950261 -1230474.37941777 -110755.637850705
 -300702.493094498 -1209117.61853694 -197893.976940331
 -347024.630649505 -1162337.39417028 -346547.426415162
 -386923.897962754 -1050854.12961928 -580986.167104141
 -401299.428276851 -787494.654584701 -900200.182617260
 -349389.052321518 -265077.999893570 -1182882.23209635
 -212605.468421587 411538.731426195 -1173449.70844613
 -63808.2627166510 900419.087277854 -881319.127100821
 35831.5930305817 1128788.40032835 -562229.735200835
 87142.5184397604 1214610.53618134 -329661.732380662
 106940.122858828 1243802.16146493 -181850.004611089
 108575.527598791 1253350.01002009 -94204.7669082053
 101330.776812008 1256609.07189874 -47065.3270616621
 92802.0114272594 1257835.93587552 -28035.2637610785
 -288716.843803303 -1226501.43705066 -62339.7139541780
 -333611.645776605 -1214322.90036828 -75316.6273961825
 -403716.070430800 -1189665.69121130 -115144.728709560
 -491554.516073402 -1145727.70711975 -192954.942369758
 -593230.802604184 -1065391.82592673 -323368.061207431
 -702084.431141735 -910103.684129508 -519940.541409531
 -793221.519521331 -609358.446727631 -768785.623752755
 -802466.171802122 -104089.991257010 -967865.046249898
 -672430.926867239 489419.188816508 -948606.840123773
 -466154.762233591 919192.922854697 -727553.117744496
 -283935.405382884 1133389.57038751 -475771.161616408
 -157554.008610454 1219718.36711122 -281092.992124088
 -78909.1180569615 1250025.63663416 -150859.834826226
 -33588.8142827637 1259166.11413681 -70156.3930347258
 -10277.4105041399 1261284.55346277 -24598.3932099053
 -1273.61841170264 1261557.38846528 -4556.79972882268
 -391775.441125487 -1197342.88203378 -66569.1932723738
 -453479.004604334 -1174909.87386981 -74114.8540121933
 -549552.255919128 -1130738.64687411 -104746.653399767
 -668102.217261795 -1057086.46422609 -166604.517822326
 -800902.382301778 -937417.474951518 -267120.352271801
 -935507.750636603 -741426.358870794 -408242.126426700
 -1041469.47333547 -427299.984755029 -569478.261268712
 -1059866.48428367 18269.1547934138 -684031.215950165
 -945491.713736387 501014.050337193 -668266.243004616
 -742863.537845657 869553.422697877 -532522.337684340
 -536810.076256255 1082138.18465467 -363814.956071076
 -371052.691826921 1185587.07644490 -219664.778637300
 -251355.045981889 1230953.12397673 -114562.115685499
 -170262.798951186 1249229.10340934 -44571.9351986046
 -119514.070767069 1255890.46757256 -2225.14449477758
 -93956.9407894101 1257929.96467791 18268.2282082965
 -498601.408830624 -1157382.89354698 -58402.9430414335
 -574409.106895973 -1121636.64247947 -59454.6136251129
 -688617.228057994 -1054086.56733324 -79102.7983595411
 -821954.117834367 -949122.919938155 -122908.673177088
 -959695.860234980 -795846.225784142 -192774.665534482
 -1084778.91929140 -577832.081471912 -284454.236744277
 -1170081.25171860 -279255.865721942 -380099.272237509
 -1177641.41188563 91500.4380764694 -443100.220901305
 -1084514.47899847 474025.235882482 -436666.751090802
 -916438.949040023 787012.760238319 -363730.667972105
 -726399.727673783 997724.134620464 -261609.284526096
 -552667.968922550 1122301.02304928 -162935.449514551
 -410600.403433114 1190015.55761144 -82581.5491634912
 -302700.019898373 1224484.38807004 -23666.6906268431
 -227777.544402358 1240737.94136589 15368.2152548984
 -186323.555503615 1247200.41747940 36387.9406214070
 -608037.910155134 -1104783.63960500 -35950.5270373613
 -693672.416406633 -1053297.89957908 -30521.2119325547
 -815933.818605705 -961355.103058048 -39972.4955277459
 -947949.645630315 -829608.124447411 -68492.7742113187
 -1071277.50156719 -656260.662242088 -115047.332643941
 -1170303.66185182 -437862.399533992 -173825.455700573
 -1227828.25124831 -173192.301749634 -232361.018611435
 -1225437.26397828 126364.289248669 -271817.971030341
 -1154181.99652958 428370.567679562 -275521.335928509
 -1026375.45844021 692407.051635050 -242229.899221079
 -868929.511172648 895575.014634802 -185624.159780160
 -707279.066101161 1037516.50668196 -121923.139462886
 -558363.938827557 1129546.78367201 -62475.6451118492
 -432185.473552850 1185154.00780325 -13233.4861900703
 -335964.233492083 1215785.48982107 23304.6663476470
 -278626.474732782 1229576.04350758 45381.4029002402
 -715736.675223108 -1038879.03805834 887.097798563442
 -805509.307108261 -970864.566263917 11233.0340557621
 -925140.533722774 -857667.734434010 8395.30183662068
 -1043455.68799316 -708960.129141908 -11188.9856893686
 -1143358.81957848 -531276.170510545 -45007.4578120957
 -1214924.67472520 -328450.029246029 -87338.6738569762
 -1250594.71053705 -103619.742332352 -129712.180980384
 -1243725.60125221 136000.913407789 -161863.557544703
 -1191524.60164881 375721.667748316 -175076.506045264
 -1098685.10157756 597249.604962979 -166533.443674287
 -976131.144702163 786868.936702660 -139838.105371258
 -836722.380698280 938666.305511076 -101738.171085117
 -692861.052425251 1052610.75038794 -59191.2250157544
 -556742.130370069 1131927.84863399 -18082.4964197412
 -442230.164869948 1181395.90788844 16900.3261066525
 -368417.875582040 1205883.31846576 40781.3942451864
 -812060.360650484 -964239.909397450 48464.4065718125
 -900013.879847376 -881962.521327144 60552.1095858236
 -1008752.29373897 -755319.421214365 58828.6727006030
 -1108082.93549484 -601697.744256361 40761.0542173453
 -1185327.90175545 -431794.351863855 10041.6103012561
 -1235996.98379291 -251175.626125588 -27779.3415003847
 -1258269.35492093 -62432.2115305648 -66406.9299789134
 -1250742.94287431 131577.357743847 -99392.7597876553
 -1212792.63546220 325540.395666611 -121272.029243447
 -1145620.83670822 512320.898825039 -128955.907371542
 -1052227.84340250 685160.398494511 -122152.465477898
 -936852.786719000 838631.391812831 -102731.083912665
 -805433.943966224 968168.640570941 -73993.7581217667
 -667457.404509449 1069781.66720235 -40214.7808922936
 -538962.780626069 1140625.53548263 -6476.09633440327
 -447938.600329312 1179196.96227862 19873.7366099442
 -880169.091517979 -898863.017766143 94324.3157818338
 -962247.958014606 -809148.312270279 104438.053246086
 -1058568.26012387 -679069.722099714 99231.9611047074
 -1142705.42991432 -528907.770229773 77655.0188580721
 -1205248.22606460 -370093.636352095 44236.2387501564
 -1244345.02232862 -207689.775499770 4455.72416049541
 -1260305.23302574 -43108.4748238326 -36356.7039931832
 -1253408.61469979 123069.171502255 -73282.0205852486
 -1223666.22449872 289402.674073871 -102159.161013096
 -1171116.74297889 453455.541835015 -120054.474354684
 -1095832.87726065 612335.909901549 -125476.967920939
 -997995.357498263 762600.853854575 -118298.922358324
 -879034.692675181 899393.405270525 -99694.2453118245
 -744484.882865852 1015910.56033011 -72231.7348049772
 -608588.134565198 1104334.85937106 -40179.9920769994
 -501892.327836220 1157377.02450509 -11486.7456589834
 513350.514867216 -1152288.39903209 15878.4527134724
 626852.378492830 -1094772.90899997 -8820.66984903515
 767922.849129300 -1000037.10896017 -42067.9142182209
 903524.974699646 -877359.955800300 -73699.1110601234
 1019938.91685722 -736035.372438691 -97601.0620746885
 1112984.49382253 -583653.355979337 -110289.199306256
 1182614.40043241 -425240.892224702 -110194.348261561
 1229801.81415139 -263973.590105021 -97236.1689700436
 1255320.45000052 -102151.407811846 -72698.6149215711
 1259592.53931011 58615.9910814035 -39245.7822295954
 1242620.84656061 217812.617037600 -725.583342477619
 1203697.94653031 375760.659119000 38270.2429587155
 1141654.97128817 531858.803739287 72798.1478952386
 1057059.16518906 681593.086511059 98011.3086795936
 958015.730339743 813343.653575686 110577.540797023
 871691.741326199 905038.703764924 112284.832947988
 457465.001944797 -1175258.85839746 32277.2160029556
 553760.603672837 -1133498.43895849 8939.44167851932
 687418.020585649 -1057519.70877122 -25650.7593160283
 827629.257743677 -950082.509644434 -62629.6057255630
 958029.623474462 -815243.105783110 -95432.4365058518
 1069743.91615041 -658065.163385175 -118943.791418375
 1157877.94836101 -483855.596696109 -129428.934802471
 1219429.92014876 -298284.042430339 -124766.705480137
 1252563.47272171 -107722.480189683 -105024.020986002
 1256802.81677985 81631.3182843699 -73023.5477660426
 1232827.19905086 265580.065382635 -33966.9997308806
 1181507.65481742 442215.500036993 5877.41897650131
 1103756.22551580 609626.166238217 40343.0662166211
 1002938.17579318 762592.419057173 64165.7919153949
 890857.822913222 890156.967219044 74446.9205854911
 799135.326773337 973370.604005362 74039.3657459485
 376144.560651741 -1203365.70759898 44448.5566229215
 454124.172876981 -1176784.05927823 22359.4355115779
 573600.733301167 -1123535.64440962 -14116.8486699750
 713088.556090054 -1039034.69024384 -58830.7280445105
 857718.636218545 -919054.793684045 -105860.560213567
 994860.679085330 -761437.838319639 -148371.420778879
 1112370.17974908 -567679.409077683 -178667.575774569
 1198596.39066520 -344975.462086095 -189494.205087623
 1244481.05929503 -107247.807149541 -176958.277106462
 1246767.54550246 128367.723063174 -143672.704701665
 1208420.14648212 348733.593545875 -98260.1711156224
 1135333.41354010 547676.333237387 -51167.4215686141
 1034097.06712904 722541.801618599 -11226.3791052104
 913783.819569303 869657.198196423 15649.9085440717
 791073.438540092 982345.713889527 27370.4979528330
 698611.312344132 1050104.01011065 27807.0698437680
 285907.812822113 -1227907.70260690 45263.9742495815
 346869.421757630 -1212711.87529101 23684.2288590589
 447830.367913721 -1179302.89023358 -15559.0995862387
 578049.421047986 -1119165.89644812 -69828.3178411163
 729026.616294687 -1020628.24593145 -135600.911721703
 889346.601383711 -870796.819513811 -205730.291038602
 1041135.66310127 -660349.207900041 -267441.368459365
 1159928.24601258 -392552.636616027 -303345.220016634
 1222095.48989817 -91704.6503057214 -299369.840835396
 1218276.27169713 203569.685291920 -256732.818254382
 1157551.62138812 463299.866749882 -192293.806999139
 1056965.88025398 677168.975761590 -125756.658527029
 932580.044712861 846664.720403265 -70730.0667804869
 799329.650251930 975441.054952899 -33708.8928838876
 675305.008786362 1065492.03513713 -15469.2949529200
 588290.495437965 1115946.49235249 -11276.0854233531
 194480.975052655 -1245982.00201166 35432.0747985404
 239281.224739193 -1238591.44220022 13607.5609364714
 318788.145737789 -1220267.95756820 -29490.0116710863
 431091.229027734 -1181794.83844432 -95240.4483434614
 575922.374053865 -1107174.28073090 -184466.696373960
 748386.849897749 -972561.336904788 -292559.395297858
 930510.392632683 -751015.923187653 -402088.203308829
 1084554.21844008 -432024.061646997 -478170.250371998
 1164037.84730463 -51825.5211535494 -483610.831473530
 1149292.02024121 312610.302672227 -415875.079551540
 1062141.70886346 605258.342302636 -311555.388790874
 937338.628339351 818084.539487388 -209005.772632160
 800424.397118339 966637.721620928 -128381.192377229
 667813.096948065 1067679.06006438 -75076.7817878881
 553740.414088088 1132573.15138052 -46893.9388034875
 477843.288531550 1166968.13132105 -37424.6309983761
 103926.688203515 -1257145.49562615 18272.3075958071
 132646.554883363 -1254566.12567307 -4261.30381312502
 187925.440937606 -1246410.87002413 -51898.0023993458
 273739.481215806 -1224588.08795156 -130384.593375896
 396662.454980732 -1171891.60231392 -246735.486206840
 560608.837262604 -1055926.36291975 -402848.207881198
 754639.519944595 -828270.756859700 -579686.276521883
 934466.323042030 -452936.858129165 -716359.075162271
 1028419.29420515 21284.9797304140 -730376.708187913
 1003980.52405431 456101.275752286 -612816.583078267
 900630.124418616 764594.768181201 -442503.842219022
 770279.182026571 956570.853755126 -288429.565755002
 641403.541867493 1072091.05592178 -175418.628461522
 526039.190920484 1141991.91134934 -103376.375189682
 432002.700915438 1183535.87948586 -64543.9330251619
 371316.702217447 1204657.51200224 -49735.4637043098
 13586.0506277541 -1261490.81574606 -2402.48530147217
 25583.2800771387 -1261046.74977903 -25612.9180529616
 53456.7932004656 -1258053.56113626 -77414.7240003269
 103987.697905516 -1246028.59531528 -167775.830380563
 186756.943592394 -1208359.55944335 -310706.372707175
 311863.405279195 -1107316.84197887 -517822.420175633
 479373.020685208 -873894.421346414 -773343.053435995
 653759.511162538 -440045.931692445 -985143.395899501
 755291.746560633 130751.087573507 -1001991.99677177
 741507.366532542 620572.356057365 -810312.413328550
 657667.261449321 920858.992158093 -557711.323803171
 556848.659194255 1077059.57048268 -348441.793280009
 461837.194409849 1155993.27488184 -204781.310686686
 379182.229405637 1197581.78234863 -116482.369518355
 312570.400774614 1220291.34343711 -68834.6759345262
 269535.413802917 1231435.39557676 -49668.4824185228
 -77970.5639595486 -1258946.32191745 -22894.9908345677
 -83723.2361939647 -1257939.73634232 -46124.5094409153
 -86398.7421700484 -1254610.96119646 -100179.959653014
 -78943.3702316250 -1243415.06917961 -198081.652235889
 -53316.4567511811 -1208221.74555432 -359036.209772960
 454.874409056242 -1108264.11366729 -602743.625736083
 91283.1405485434 -860838.450045171 -917700.377080873
 211285.234336213 -376088.017296284 -1185523.42191818
 313784.947175426 261747.713086652 -1193556.27120759
 353223.288198108 770447.420940817 -934448.238887052
 342246.463524300 1044228.20595079 -619680.758956456
 309753.129870493 1164302.48175198 -374168.625676401
 270718.097707443 1213757.76368950 -212257.470012450
 231423.907719955 1234848.95657613 -114631.846785368
 196367.855358083 1244660.12679419 -61727.3445864799
 172021.309625930 1249151.52673165 -39731.1366251677
 -172021.375917436 -1249151.51778275 -39731.1309613330
 -196367.933087825 -1244660.11459110 -61727.3433724987
 -231424.002683697 -1234848.93825629 -114631.852415085
 -270718.216283674 -1213757.73407873 -212257.488101632
 -309753.279882431 -1164302.43130660 -374168.658461085
 -342246.661066585 -1044228.11064058 -619680.810462727
 -353223.529637048 -770447.250802795 -934448.287900467
 -313785.213724371 -261747.481632492 -1193556.25189010
 -211285.488648891 376088.221574054 -1185523.31179046
 -91283.3508953625 860838.564521220 -917700.248774791
 -455.037312856093 1108264.16336671 -602743.534230847
 53316.3300957810 1208221.76645518 -359036.158245937
 78943.2707396103 1243415.07952558 -198081.626942745
 86398.6631354608 1254610.96737467 -100179.950441981
 83723.1740956562 1257939.74035882 -46124.5126183293
 77970.5122591167 1258946.32496945 -22894.9990809487
 -269535.491861289 -1231435.37857076 -49668.4804513371
 -312570.491533449 -1220291.32012188 -68834.6771380560
 -379182.339387714 -1197581.74730947 -116482.371741867
 -461837.322846467 -1155993.22220995 -204781.318360892
 -556848.812895132 -1077059.48654343 -348441.807111363
 -657667.440689830 -920858.859597514 -557711.331314157
 -741507.563645275 -620572.157496989 -810312.385019095
 -755291.929600460 -130750.868697017 -1001991.88735955
 -653759.662247794 440046.086925836 -985143.226296493
 -479373.143156892 873894.493794571 -773342.895651318
 -311863.503705404 1107316.86165212 -517822.318828034
 -186757.023478059 1208359.56154366 -310706.316521858
 -103987.763379543 1246028.59325279 -167775.805117291
 -53456.8426730445 1258053.55961032 -77414.7146360943
 -25583.3221609928 1261046.74877387 -25612.9255067754
 -13586.0877482808 1261490.81531966 -2402.49928168182
 -371316.792229251 -1204657.48407655 -49735.4680875059
 -432002.803303868 -1183535.84164943 -64543.9415260725
 -526039.302984577 -1141991.85984880 -103376.373865308
 -641403.667737756 -1072090.98023810 -175418.630776821
 -770279.315587485 -956570.745443989 -288429.568279260
 -900630.261955682 -764594.614364650 -442503.828066114
 -1003980.64660353 -456101.084028588 -612816.524999503
 -1028419.38035752 -21284.7954655087 -730376.592249505
 -934466.375334364 452936.979874702 -716358.929971835
 -754639.555672601 828270.813408493 -579686.149212525
 -560608.870393101 1055926.37774993 -402848.122904212
 -396662.484234014 1171891.60224502 -246735.439505255
 -273739.507698039 1224588.08392934 -130384.575554249
 -187925.465990005 1246410.86622539 -51898.0029160377
 -132646.573954643 1254566.12361774 -4261.31526610921
 -103926.701752428 1257145.49471158 18272.2934574981
 -477843.390258067 -1166968.08894871 -37424.6533856517
 -553740.524898547 -1132573.09654285 -46893.9547424368
 -667813.212578257 -1067678.98694714 -75076.7930613821
 -800424.514151981 -966637.624518452 -128381.193828548
 -937338.737545638 -818084.415320532 -209005.768879632
 -1062141.80238970 -605258.189328458 -311555.367127802
 -1149292.08293902 -312610.138277326 -415875.029857388
 -1164037.87505683 51825.6665273006 -483610.749095942
 -1084554.21862931 432024.163828618 -478170.157622260
 -930510.383951697 751015.979692540 -402088.117859099
 -748386.840019356 972561.361471769 -292559.338898922
 -575922.366178267 1107174.29056412 -184466.661943089
 -431091.223705751 1181794.84126130 -95240.4374780873
 -318788.141919467 1220267.95839167 -29490.0188728358
 -239281.217909938 1238591.44365039 13607.5490275244
 -194480.972554832 1245982.00297175 35432.0547469250
 -588290.610987385 -1115946.43107856 -11276.1210562188
 -675305.125917469 -1065491.96043261 -15469.3271354262
 -799329.759693671 -975440.964523677 -33708.9144905510
 -932580.145139462 -846664.608771865 -70730.0789183698
 -1056965.95953294 -677168.852435105 -125756.656282249
 -1157551.67728277 -463299.731405462 -192293.796619708
 -1218276.30085715 -203569.549752817 -256732.787353313
 -1222095.49200059 91704.7649791901 -299369.797125395
 -1159928.23052200 392552.720839695 -303345.170257265
 -1041135.63708074 660349.265393929 -267441.327795706
 -889346.571276935 870796.856720920 -205730.263699533
 -729026.590437154 1020628.26683556 -135600.893399645
 -578049.398777858 1119165.90804015 -69828.3164064984
 -447830.344658615 1179302.89894695 -15559.1084970278
 -346869.398193512 1212711.88232553 23684.2137781420
 -285907.789389896 1227907.70868085 45263.9574859592
 -698611.440171742 -1050103.92657483 27807.0130045582
 -791073.557897424 -982345.619087417 27370.4507493618
 -913783.919733640 -869657.093605916 15649.8720789807
 -1034097.14814114 -722541.685433670 -11226.3946120733
 -1135333.47024572 -547676.214609114 -51167.4331015658
 -1208420.17961960 -348733.478501248 -98260.1718882506
 -1246767.55757932 -128367.618469183 -143672.693352657
 -1244481.05314265 107247.896298952 -176958.266343704
 -1198596.37293422 344975.531178437 -189494.191457279
 -1112370.15173941 567679.465159949 -178667.571970724
 -994860.645667120 761437.882525246 -148371.417992908
 -857718.604215288 919054.823317342 -105860.562246100
 -713088.520363091 1039034.71449398 -58830.7327996457
 -573600.696995061 1123535.66279552 -14116.8605701988
 -454124.134823625 1176784.07423485 22359.4212106957
 -376144.517263598 1203365.72165248 44448.5433201718
 -799135.460950296 -973370.499056204 74039.2972534717
 -890857.938898517 -890156.856310537 74446.8587905512
 -1002938.26626756 -762592.304046847 64165.7446282395
 -1103756.29111107 -609626.049479717 40343.0359225496
 -1181507.69592452 -442215.390396185 5877.40477134200
 -1232827.22009336 -265579.966832510 -33967.0065368225
 -1256802.82207707 -81631.2300011881 -73023.5552856544
 -1252563.46533366 107722.554254239 -105024.033131610
 -1219429.90346658 298284.105788324 -124766.717054230
 -1157877.92294819 483855.652910703 -129428.951994900
 -1069743.88289992 658065.213906671 -118943.810949250
 -958029.584441672 815243.149383632 -95432.4558864976
 -827629.217213290 950082.544033388 -62629.6196453082
 -687417.969547692 1057519.74180666 -25650.7651163584
 -553760.549281424 1133498.46559814 8939.43315669382
 -457464.948553402 1175258.87933804 32277.2102430821
 -871691.882224453 -905038.577672306 112284.755456082
 -958015.843822722 -813343.529584000 110577.469619410
 -1057059.24752355 -681592.966574869 98011.2547597322
 -1141655.02597837 -531858.691437992 72798.1106839612
 -1203697.97987175 -375760.554250233 38270.2239498443
 -1242620.86213611 -217812.528128652 -725.598559847477
 -1259592.54222621 -58615.9154851327 -39245.8015449365
 -1255320.44323522 102151.474275515 -72698.6383505036
 -1229801.79921077 263973.649038555 -97236.1979417482
 -1182614.37684675 425240.949862617 -110194.378959522
 -1112984.46108521 583653.412840660 -110289.228763631
 -1019938.87708382 736035.423840474 -97601.0900754622
 -903524.929085739 877360.001239131 -73699.1293383799
 -767922.790599985 1000037.15361863 -42067.9210139848
 -626852.315147740 1094772.94524173 -8820.67342267035
 -513350.447689904 1152288.42896501 15878.4523451185
 535355.778578618 -1141226.64540118 50451.6113499150
 652727.333233802 -1079238.16899288 27229.2849215369
 797163.516766412 -977761.102047745 -7936.35797699244
 932723.614866302 -848283.776518803 -44617.5266536574
 1045582.72040859 -701895.783481658 -75156.6020559570
 1132801.04349451 -547092.459821961 -94873.9541848476
 1195789.07150400 -389016.221399456 -101510.131901458
 1236730.49340090 -230438.875011538 -94578.2347834226
 1257220.07526258 -72922.3966533134 -75029.5764484973
 1258032.84088656 82846.4260599182 -45158.2977860725
 1239023.99014604 237273.135317546 -8392.97433026585
 1198893.83540344 391452.133653131 31116.3848961378
 1135539.13621768 545301.875662689 68892.4192906054
 1048472.70195157 694367.751066415 100537.806124370
 945366.901291542 826309.169292639 122654.024003661
 855083.409686034 917804.307346264 134227.593345423
 477237.307931112 -1166581.72428253 53675.5382610766
 577566.184193412 -1121155.74164932 31249.5881887873
 715671.072431115 -1038911.59692383 -5200.07513680207
 857544.676169526 -924110.697965936 -46754.4350534536
 985838.494787219 -782533.564137268 -85516.7475600426
 1092246.24369806 -620709.379145661 -115184.376922576
 1173225.85231717 -444816.831549441 -131257.444527595
 1227359.30077564 -260641.906363634 -131165.446538365
 1254171.68038776 -73883.1975980842 -114647.721935378
 1253897.37204281 110485.118785634 -84165.6095445572
 1227091.47392185 289504.409690447 -44532.4860864974