# OOMMF OVF 2.0
#
# Segment count: 1
#
# Begin: Segment
# Begin: Header
#
# Title: Oxs_MinDriver::Magnetization
# Desc: Oxs vector field output
# Desc:  MIF source file: C:/Users/grl31/Documents/GitHub/phd-work/Skyrmions/stdprob3/drive-105/stdprob3.mif
# Desc:  Iteration: 497, State id: 1062
# Desc:  Stage: 0, Stage iteration: 497
# Desc:  Stage simulation time: -1 s
# Desc:  Total simulation time: -2 s
# meshunit: m
# meshtype: rectangular
# xbase: 3.1249999999999999e-09
# ybase: 3.1249999999999999e-09
# zbase: 3.1249999999999999e-09
# xnodes: 16
# ynodes: 16
# znodes: 16
# xstepsize: 6.2499999999999997e-09
# ystepsize: 6.2499999999999997e-09
# zstepsize: 6.2499999999999997e-09
# xmin: 0
# ymin: 0
# zmin: 0
# xmax: 9.9999999999999995e-08
# ymax: 9.9999999999999995e-08
# zmax: 9.9999999999999995e-08
# valuedim: 3
# valuelabels: Magnetization_x Magnetization_y Magnetization_z
# valueunits: A/m A/m A/m
#
# End: Header
#
# Begin: Data Text
 501324.638680144 -1157564.60115677 -16347.2236160235
 607311.553987629 -1104868.13179836 -44592.8093810117
 742670.653520579 -1016952.47898734 -76140.5726257535
 877060.346339771 -900927.713932920 -103168.958824430
 996203.242124383 -764441.254326504 -121482.920542534
 1094428.65056706 -614209.358547752 -128538.801959827
 1170159.85104801 -455094.116983329 -123145.030762154
 1223106.79003223 -290606.295423975 -105390.664463007
 1253136.38564758 -123736.928680553 -76732.0165626556
 1260196.99503349 42963.1556478728 -40089.0494311191
 1244313.22671262 207927.610125414 365.642623153828
 1205297.85249409 370447.603743785 39687.4107567029
 1142993.74970214 529011.923232185 72533.4690951774
 1059431.03843932 678543.137764126 93458.6320440673
 964103.253879360 807738.965770953 98041.3685821252
 883153.865047575 896622.768899100 87500.2392122141
 447907.258296789 -1179277.81093156 15243.4749473690
 538472.624344725 -1140824.22758664 -10804.8832298996
 666506.716573075 -1070217.77100242 -44183.1451182988
 804207.279387470 -968903.501216509 -77627.8817793466
 935587.932258746 -839619.779077413 -106128.594227729
 1051126.06170367 -686254.691237210 -125450.915027417
 1144792.70577109 -513321.739787056 -132287.124068296
 1212246.80980775 -326266.165476825 -124729.676881411
 1250412.30196795 -131922.889350186 -103028.429434133
 1258059.48950039 62456.4170041568 -70249.1834256921
 1235849.05395641 251418.809699086 -31861.0872932026
 1185291.61243082 431973.523730414 5665.61700286256
 1108374.90376116 601462.133186782 36025.0742372751
 1009747.93336750 754370.722728387 53696.8776491518
 902098.870743360 880190.007015397 55069.1372071922
 815256.879881857 961808.667267224 42775.4403121638
 368851.376587760 -1205884.69890014 36608.5490942822
 442456.847569894 -1181361.71781185 12878.6896114124
 556697.183738215 -1131881.57648418 -21949.3360397553
 692546.532283441 -1052601.21864008 -62923.8115387013
 836197.942567013 -938730.603098933 -105391.112391708
 975496.551561763 -786997.594945761 -143494.579547976
 1098040.43286953 -597380.554770522 -170273.637080780
 1190932.95945498 -375774.921197088 -178945.035142295
 1243206.99604532 -135925.863117384 -165861.254181672
 1250147.82660466 103803.819853132 -133808.107147904
 1214576.05719143 328607.170762425 -91497.3198502875
 1143238.51593718 531161.537124890 -49219.3871947008
 1043836.53732989 708318.677511333 -15471.4363488909
 926377.432635234 856363.283541430 4026.14272557844
 807862.897691745 968948.329844872 6789.95897506444
 719091.447807055 1036553.93294675 -3586.73979235857
 279251.940130708 -1229563.44569953 41731.4971177347
 336576.990819524 -1215680.09441419 19679.1314575940
 432746.337778669 -1184902.58285082 -16908.7909548988
 558790.495425818 -1129120.13590431 -66259.5792028900
 707471.544702334 -1036915.20857669 -125858.232062175
 868803.695448545 -894835.733263545 -189732.917988947
 1025892.41008782 -691615.489325344 -246499.916365971
 1153386.06192911 -427671.623194313 -279905.351468953
 1224491.49542532 -125898.465494936 -276259.995178534
 1226955.86089260 173386.290221796 -236782.475498857
 1169696.90975691 437758.938569062 -178117.045582324
 1071134.79239624 655764.383652563 -119133.373032001
 948514.811322381 828633.061647300 -72362.5093956997
 817432.310384737 959920.606132730 -43660.9525754802
 696187.363453171 1051527.95727595 -34081.3872097027
 611365.330903063 1102826.62302704 -39437.3253596309
 186850.276713329 -1247210.33733564 33208.1233169193
 228415.349530700 -1240656.74069029 12112.4232700412
 303461.085315396 -1224223.73527123 -27148.6024815412
 411400.076169407 -1189467.38229615 -86410.3853729648
 553325.355332078 -1121353.55559449 -167172.621625597
 726643.805248462 -996327.155593639 -266214.969976666
 915968.735062975 -785323.839904520 -368533.816336721
 1083218.75153033 -472550.094414485 -441455.519300507
 1175904.45885319 -90806.6136479428 -447830.652686858
 1168574.72250506 279162.659271537 -384773.645809597
 1083909.58795914 577258.168156698 -288898.673146080
 959610.188439207 794959.969226130 -196815.559574476
 822724.815567461 947982.362980568 -126501.969337313
 690271.930890549 1052757.62309026 -82313.3000731364
 576884.777176498 1120205.09529570 -62401.3561914665
 501679.137274276 1155906.60708796 -61215.9279361799
 94154.0017446146 -1257952.89052329 15458.9811609741
 119885.202201877 -1255846.35926021 -5185.66725174266
 170859.607565799 -1249024.55224943 -47896.6940353896
 252125.069181701 -1230428.89578982 -118436.112797239
 371809.202241339 -1184504.37794619 -224180.121049833
 537164.771657029 -1080256.90589131 -368847.470214649
 742211.045753145 -866976.698374980 -537609.150736663
 943406.800925232 -498764.776702899 -672879.436754818
 1057033.81183378 -17701.7659148004 -688415.280947920
 1039261.92058542 426472.663860518 -574112.496223328
 934460.386698930 740206.541130080 -412828.648567032
 800908.766339490 936229.795668652 -271234.858787996
 668980.075270635 1055972.95134936 -170106.483792894
 551165.371150466 1129674.22431408 -107714.026402837
 455699.115467964 1173883.23910366 -76719.5413970868
 394419.439718922 1196336.90522201 -68998.1571825523
 985.001939693672 -1261545.91838747 -7096.23069250168
 10186.9798770196 -1261228.84688022 -27339.5712682579
 33767.4204480019 -1258979.07692241 -73354.4552623650
 79341.5420389723 -1249522.93362351 -154747.500705949
 158104.192887481 -1218558.02754188 -285777.585936319
 284232.049378154 -1131110.69282700 -480988.745811862
 465440.125309658 -915751.604222502 -732334.568373362
 669926.055547680 -486541.264009265 -951854.037882672
 799002.316112649 103905.308871366 -970746.319361511
 790749.614056624 607310.270076553 -772941.598471578
 701064.335654994 908187.575011944 -524646.125293516
 593281.573780810 1064050.43687691 -327663.047829907
 492347.081149316 1144780.57585672 -196522.812273437
 405066.899875433 1188920.55063659 -118059.992454069
 335400.147423489 1213673.98283616 -77792.2580586176
 290808.253772562 1225889.83069807 -64607.3792052372
 -93667.4737285295 -1257717.02613206 -30392.7205395358
 -101985.925699655 -1256456.61798408 -49649.4612473748
 -108939.333601300 -1253082.94330810 -97287.1507638926
 -106986.814429792 -1243231.84521021 -185682.071057856
 -86902.4916125776 -1213349.04131240 -334337.392190515
 -35454.8548978386 -1126250.93117169 -567319.331785920
 63875.2411261676 -896508.823843399 -885291.654349544
 211568.274503454 -408730.103170333 -1174618.23538755
 347354.460120085 263470.517639310 -1183840.19035025
 399682.861555353 784130.093841687 -903849.012296692
 386199.936952421 1048422.17660579 -585841.257695362
 347003.545982469 1160988.37750070 -351061.187405907
 301198.423973367 1208381.48055576 -201601.432943287
 256281.047254984 1230014.01094718 -113732.091383574
 217255.943675052 1240870.70801413 -67743.4266133809
 190718.586338120 1246035.68829072 -50704.1936136987
 -190718.620832245 -1246035.68335993 -50704.1850396993
 -217255.979583074 -1240870.70181616 -67743.4249844490
 -256281.087007997 -1230014.00192696 -113732.099358889
 -301198.465845261 -1208381.46745618 -201601.448903178
 -347003.594261468 -1160988.35769666 -351061.205178527
 -386199.990778741 -1048422.14251309 -585841.283224140
 -399682.920940558 -784130.040059687 -903849.032694825
 -347354.525836493 -263470.444186498 -1183840.18741553
 -211568.335474032 408730.167346885 -1174618.20207431
 -63875.2901959525 896508.862761877 -885291.611397478
 35454.8131765730 1126250.95275896 -567319.291537939
 86902.4575561517 1213349.05176010 -334337.363126701
 106986.784270834 1243231.85037580 -185682.053848754
 108939.307279763 1253082.94635040 -97287.1410524982
 101985.901373748 1256456.61967358 -49649.4684601013
 93667.4539091931 1257717.02729365 -30392.7335517401
 -290808.297107697 -1225889.82048797 -64607.3778777335
 -335400.194551549 -1213673.96965973 -77792.2604384390
 -405066.949213499 -1188920.53353890 -118059.995355800
 -492347.131053787 -1144780.55344845 -196522.817780349
 -593281.624913770 -1064050.40770207 -327663.049988374
 -701064.389284058 -908187.530616959 -524646.130480913
 -790749.663159727 -607310.209592395 -772941.595760361
 -799002.357440924 -103905.244233741 -970746.292263600
 -669926.090931963 486541.310377337 -951853.989277703
 -465440.152257425 915751.629951404 -732334.519073685
 -284232.069062550 1131110.70407367 -480988.707731633
 -158104.209179822 1218558.03173474 -285777.559044331
 -79341.5580120824 1249522.93468564 -154747.483939944
 -33767.4320292593 1258979.07687387 -73354.4507641541
 -10186.9916141782 1261228.84653234 -27339.5829430738
 -985.012037218429 1261545.91826547 -7096.25097982814
 -394419.485562989 -1196336.88989784 -68998.1608214698
 -455699.167065128 -1173883.21905276 -76719.5417180720
 -551165.424841418 -1129674.19821313 -107714.025409252
 -668980.126885547 -1055972.91969563 -170106.477303612
 -800908.812363756 -936229.758758179 -271234.850291464
 -934460.427571626 -740206.494570900 -412828.639530577
 -1039261.95151960 -426472.609281016 -574112.480769818
 -1057033.83143448 17701.8121488456 -688415.249662978
 -943406.815600831 498764.804776577 -672879.395369657
 -742211.051609067 866976.715662883 -537609.114772728
 -537164.773863455 1080256.91469933 -368847.441204968
 -371809.199403270 1184504.38244445 -224180.101989342
 -252125.068333193 1230428.89684485 -118436.103642880
 -170859.606987499 1249024.55219495 -47896.6975192112
 -119885.203061909 1255846.35910580 -5185.68476454715
 -94154.0015469057 1257952.89084700 15458.9560232064
 -501679.189470646 -1155906.58450045 -61215.9266819428
 -576884.833186325 -1120205.06647068 -62401.3558503428
 -690271.986311179 -1052757.58737363 -82313.2921236085
 -822724.865006757 -947982.322062750 -126501.954431872
 -959610.225158915 -794959.928766788 -196815.543960616
 -1083909.61309271 -577258.126637141 -288898.661809897
 -1168574.73621915 -279162.618306074 -384773.633880761
 -1175904.46574651 90806.6419108332 -447830.628855653
 -1083218.75240086 472550.114268286 -441455.495912233
 -915968.734787995 785323.851193305 -368533.792964429
 -726643.797080186 996327.165520233 -266214.955121347
 -553325.346973001 1121353.56112125 -167172.612221189
 -411400.061997626 1189467.38718563 -86410.3855394952
 -303461.073097961 1224223.73805451 -27148.6135380679
 -228415.333538539 1240656.74382982 12112.4032714268
 -186850.262533627 1247210.34016234 33208.0969374106
 -611365.391624377 -1102826.58952957 -39437.3207699088
 -696187.426649749 -1051527.91580817 -34081.3757040041
 -817432.369055363 -959920.556698217 -43660.9409847648
 -948514.857346141 -828633.010165073 -72362.4956545430
 -1071134.82057516 -655764.339968852 -119133.360128871
 -1169696.92589364 -437758.899329230 -178117.036052072
 -1226955.86538585 -173386.261659158 -236782.473131113
 -1224491.49594336 125898.483625802 -276259.984619673
 -1153386.05975721 427671.633924564 -279905.344023607
 -1025892.40637043 691615.497846361 -246499.907929332
 -868803.687649180 894835.741078992 -189732.916842995
 -707471.529639984 1036915.21881419 -125858.232386041
 -558790.471810480 1129120.14694533 -66259.5902109437
 -432746.313160602 1184902.59158399 -16908.8090176610
 -336576.962478618 1215680.10275872 19679.1006948451
 -279251.906207729 1229563.45452229 41731.4641670474
 -719091.519211922 -1036553.88346267 -3586.72481637313
 -807862.963916356 -968948.274550726 6789.97028012331
 -926377.489205689 -856363.222302071 4026.15205012899
 -1043836.57813249 -708318.617591513 -15471.4267235337
 -1143238.53945001 -531161.486688749 -49219.3853452263
 -1214576.06719444 -328607.134335577 -91497.3178908001
 -1250147.82780326 -103803.798672284 -133808.112380961
 -1243206.99458576 135925.871870652 -165861.257948341
 -1190932.95634891 375774.927448263 -178945.042687010
 -1098040.42925221 597380.559297357 -170273.644525981
 -975496.541694497 786997.604652188 -143494.593392049
 -836197.922644259 938730.618856707 -105391.130107248
 -692546.504344352 1052601.23553555 -62923.8364088498
 -556697.151304898 1131881.59170979 -21949.3734873337
 -442456.805422432 1181361.73409271 12878.6441749203
 -368851.323607109 1205884.71654021 36608.5018399914
 -815256.959052576 -961808.599481469 42775.4555650299
 -902098.940546374 -880189.935037186 55069.1442034185
 -1009747.98262017 -754370.656656292 53696.8796989630
 -1108374.93606113 -601462.073854533 36025.0710622347
 -1185291.63148314 -431973.471545810 5665.60990997148
 -1235849.06102660 -251418.773530023 -31861.0984632916
 -1258059.48941136 -62456.3968548128 -70249.2029342859
 -1250412.29968253 131922.898846546 -103028.445011664
 -1212246.80622512 326266.170493689 -124729.698577864
 -1144792.70020961 513321.746676628 -132287.145462408
 -1051126.05001760 686254.703595312 -125450.945339880
 -935587.910590646 839619.798648363 -106128.630412651
 -804207.246840027 968903.523920994 -77627.9355800281
 -666506.672965288 1070217.79580489 -44183.2021724265
 -538472.565113724 1140824.25492756 -10804.9483000750
 -447907.182245757 1179277.84072279 15243.4048626794
 -883153.949213905 -896622.684854272 87500.2509228029
 -964103.320865576 -807738.885676469 98041.3697428694
 -1059431.08146667 -678543.071725670 93458.6237562568
 -1142993.77470978 -529011.870909065 72533.4566315619
 -1205297.86721063 -370447.557630078 39687.3942501719
 -1244313.23268558 -207927.574410732 365.625728883170
 -1260196.99496009 -42963.1340865584 -40089.0748457186
 -1253136.38298447 123736.940615356 -76732.0408089154
 -1223106.78516682 290606.304269223 -105390.696538256
 -1170159.84299992 455094.128733058 -123145.063815179
 -1094428.63583191 614209.374976933 -128538.848915470
 -996203.217940790 764441.276180992 -121482.981335427
 -877060.310482249 900927.740434148 -103169.032233293
 -742670.600651124 1016952.51142272 -76140.6550961411
 -607311.478273117 1104868.17010636 -44592.8913896758
 -501324.545040824 1157564.64054817 -16347.3059297166
 512950.202477939 -1152531.04365952 10184.0118760174
 625630.869622140 -1095416.28171280 -14093.1065882084
 766091.691504463 -1001232.48121775 -46759.7014675114
 901521.367759440 -879062.015949826 -77837.1794602655
 1018136.90851844 -738024.174495591 -101326.128375485
 1111592.85501522 -585631.174661661 -113784.370027156
 1181680.74730274 -426928.988614383 -113629.578251838
 1229261.78341707 -265171.123494730 -100743.109013892
 1255052.43525426 -102760.251938746 -76375.0371704936
 1259465.51314708 58580.5434500870 -43178.3746938937
 1242540.98392547 218211.288256373 -5016.75811383834
 1203664.10304127 376325.337683549 33487.2839474708
 1141821.62735037 532215.886052299 67372.4934040147
 1057774.04447662 681345.486851563 91824.9927717228
 959737.834057575 812228.377629550 103623.276201341
 874605.078937953 903129.886060725 104746.339882751
 457599.320601560 -1175337.37320010 27098.9273412009
 553338.810741215 -1133732.49734882 4026.89727418973
 686454.299576923 -1058026.42853430 -30166.2399754009
 826350.437160631 -950915.504642393 -66738.9612901664
 956707.029187804 -816342.643393573 -99225.9028620756
 1068595.37353328 -659265.531770024 -122565.562872298
 1157015.90193023 -484941.764157973 -133023.001675975
 1218857.20912974 -299063.976454866 -128441.709185236
 1252205.52881884 -108085.040891278 -108850.211070193
 1256559.13264927 81678.5169667564 -77053.2085041037
 1232635.17354962 265887.143639141 -38262.0790689258
 1181415.78921836 442498.195338201 1229.23835958994
 1103984.19253512 609529.539849724 35243.0645960265
 1003873.04105027 761813.639014204 58551.9238229463
 892907.281315693 888591.097276696 68351.1501949243
 802328.039681619 971208.870629285 67620.0951684664
 376745.167967533 -1203336.36618183 39926.1713213004
 454436.220519528 -1176739.01878104 17956.4494572053
 573560.005207061 -1123495.32601810 -18346.7643279241
 712715.306243481 -1039053.65258964 -62879.4895442830
 857094.135696981 -919178.739282435 -109770.299826282
 994108.164845331 -761660.132271514 -152224.276693773
 1111611.25564255 -567930.155097312 -182551.872570232
 1197908.72916501 -345156.522479443 -193471.141256571
 1243888.58914369 -107286.521291942 -181053.061465852
 1246264.70879384 128467.340930562 -147884.579480713
 1208029.39850565 348841.723951373 -102585.841594528
 1135184.65665861 547549.915940618 -55626.5742182723
 1034465.10140251 721927.937310021 -15856.8039194285
 915024.313420787 868425.437327642 10825.7364675648
 793444.369394087 980558.453018392 22373.7303539583
 701982.246925802 1047976.66187553 22699.6053748735
 286690.435838480 -1227862.34314928 41377.4237195314
 347568.857306251 -1212581.25181370 19799.6994848727
 448403.091544488 -1179027.04750446 -19476.1306528790
 578413.782618028 -1118722.15191262 -73808.3587166573
 729085.219207189 -1020038.32314160 -139663.858514072
 889031.812729809 -870126.698319499 -209884.243679487
 1040447.31888896 -659704.550082097 -271677.592260950
 1158959.82257665 -392065.162325655 -307646.662687278
 1221036.76585887 -91468.2049764699 -303730.497017082
 1217344.03828680 203557.129899311 -261127.206996296
 1156925.70676444 463033.255932760 -196653.359612462
 1056836.64780461 676564.444591570 -130024.163487270
 933180.905534960 845644.087199217 -74892.6314727327
 800869.462020983 974027.677529403 -37783.8474463914
 677849.253829087 1063809.25672596 -19485.5152991795
 591621.591958965 1114136.50073299 -15270.2515154906
 195147.745914881 -1245968.70319171 32074.5826171724
 239996.813473662 -1238486.05559086 10161.2277031034
 319558.598089793 -1219972.73009333 -33140.1740257721
 431822.843894558 -1181203.44388862 -99181.0796242826
 576420.595584953 -1106198.16102302 -188717.663332660
 748385.254938280 -971203.990143850 -297038.298269070
 929764.915201780 -749501.761999571 -406612.520882374
 1083058.20339452 -430864.552647085 -482586.879484935
 1162227.05974861 -51492.1769478257 -487981.811362095
 1147794.65299839 312189.413908975 -420303.027957727
 1061325.80422372 604423.189920001 -315926.535281164
 937330.691785509 817025.434749930 -213143.247905112
 801274.434211842 965417.696996038 -132202.051135040
 669524.417627751 1066352.88984003 -78600.2509473697
 556234.612807961 1131208.29162200 -50202.4640726901
 480900.172141972 1165604.39462214 -40630.6607172461
 104246.011930251 -1257158.60992217 15311.0879481406
 133083.840304194 -1254505.34787850 -7379.33012370282
 188524.004050051 -1246171.80146194 -55353.1576063613
 274432.443759273 -1224007.61724427 -134319.088960816
 397241.037065294 -1170751.99492836 -251174.751441116
 560685.859770188 -1054066.39746389 -407584.135253339
 753706.118888811 -825929.021124326 -584224.074592217
 932304.240339786 -451152.350082293 -720291.462797271
 1025755.15404813 21390.7293958845 -734110.503642713
 1001990.06965116 454893.806554878 -616957.823515860
 899769.574218569 763071.772195512 -446861.963818682
 770439.074904546 955188.147230580 -292555.407007619
 642391.706817941 1070892.16972640 -179087.371830518
 527707.913375487 1140925.86360789 -106592.508322255
 434222.441594381 1182562.06446957 -67433.4176223587
 373915.293573927 1203737.49494762 -52467.3937576025
 13404.3390970680 -1261484.77721090 -5090.33176680687
 25548.1013564909 -1260985.44811937 -28503.0711894392
 53627.4302359781 -1257837.75542832 -80732.3396433679
 104330.964397426 -1245464.78281211 -171703.102947011
 187111.870734269 -1207124.28090083 -315261.081024810
 311864.003927550 -1105058.95399052 -522623.174169122
 478415.027072426 -870799.564020966 -777416.627099742
 651429.360153026 -437803.987153031 -987682.584883666
 752415.742681659 130193.592396457 -1004225.87577829
 739548.462417213 618289.720720953 -813839.863797599
 656981.761628851 918697.849702288 -562066.416679024
 557113.839254628 1075543.09493921 -352676.412534930
 462753.178249799 1154968.23470260 -208464.154632473
 380578.687042757 1196831.85535869 -119594.330494592
 314340.201122888 1219681.16638092 -71536.8524095272
 271561.450362349 1230886.58637962 -52172.9917369441
 -78742.2371384751 -1258849.95319474 -25414.2942256092
 -84333.3885238998 -1257795.39520745 -48867.7224144531
 -86781.8397649384 -1254323.88389526 -103392.153937704
 -79094.5009220672 -1242781.46347858 -201959.711023959
 -53294.1031327249 -1206865.38004687 -363572.721659026
 490.215321013090 -1105725.97684344 -607387.236235262
 91000.6108423994 -857312.595816131 -921023.035976990
 210290.108734237 -373864.356704172 -1186403.36474307
 312330.902335325 260227.061587853 -1194269.95054833
 352192.978514192 767210.748302258 -937495.175717584
 341914.979585692 1041689.48738037 -624120.653027193
 309966.626590632 1162821.72352762 -378570.681130010
 271333.230332407 1212953.05013742 -216038.439169225
 232364.312252436 1234377.44459123 -117764.942129734
 197578.796837853 1244333.04798622 -64399.6556541803
 173422.212436100 1248877.43264366 -42182.0505203058
 -173422.241246845 -1248877.42897011 -42182.0408334020
 -197578.830608672 -1244333.04277330 -64399.6527692060
 -232364.348488278 -1234377.43705436 -117764.949631335
 -271333.273225739 -1212953.03795831 -216038.453677272
 -309966.672618455 -1162821.70444364 -378570.702061814
 -341915.030651269 -1041689.45434522 -624120.680189060
 -352193.035882936 -767210.692249836 -937495.200036802
 -312330.965783453 -260226.996310961 -1194269.94817868
 -210290.169692396 373864.419248936 -1186403.33422886
 -91000.6591303505 857312.637537389 -921022.992370701
 -490.251869172052 1105725.99812035 -607387.197471931
 53294.0709627048 1206865.39159291 -363572.688048042
 79094.4706774523 1242781.46918804 -201959.687735019
 86781.8170827223 1254323.88609462 -103392.146293952
 84333.3678438001 1257795.39631370 -48867.7296294401
 78742.2198883383 1258849.95391228 -25414.3121301787
 -271561.490649477 -1230886.57761604 -52172.9887955471
 -314340.242479190 -1219681.15574010 -71536.8521083949
 -380578.734704001 -1196831.84000220 -119594.332503644
 -462753.226394117 -1154968.21454736 -208464.159428092
 -557113.892012927 -1075543.06451008 -352676.421992505
 -656981.814777207 -918697.808255367 -562066.422300590
 -739548.514255396 -618289.658986845 -813839.863592047
 -752415.787535140 -130193.528536883 -1004225.85045096
 -651429.398070570 437804.034352277 -987682.538953301
 -478415.050889781 870799.596635592 -777416.575910477
 -311864.019102833 1105058.96846004 -522623.134518579
 -187111.881474389 1207124.28714920 -315261.050725597
 -104330.978980256 1245464.78424626 -171703.083683401
 -53627.4395256314 1257837.75526018 -80732.3360921784
 -25548.1135556625 1260985.44754074 -28503.0858536044
 -13404.3457024785 1261484.77704350 -5090.35585749064
 -373915.337672782 -1203737.48126908 -52467.3933027017
 -434222.490102663 -1182562.04644210 -67433.4214071323
 -527707.963382185 -1140925.84080871 -106592.504787674
 -642391.757598127 -1070892.13998503 -179087.367525518
 -770439.122437356 -955188.109431671 -292555.405243622
 -899769.615356477 -763071.726258403 -446861.959429567
 -1001990.10226995 -454893.748952729 -616957.813011345
 -1025755.17577863 -21390.6806794507 -734110.474698718
 -932304.254087726 451152.387698915 -720291.421441662
 -753706.122390854 825929.045934081 -584224.035000199
 -560685.854880330 1054066.41072752 -407584.107678485
 -397241.034322778 1170752.00062227 -251174.729238582
 -274432.441775866 1224007.61856573 -134319.080971145
 -188524.001091464 1246171.80165448 -55353.1633481243
 -133083.835678721 1254505.34825663 -7379.34926037478
 -104246.009060380 1257158.61051268 15311.0590021369
 -480900.220565718 -1165604.37466699 -40630.6600485765
 -556234.665427119 -1131208.26588489 -50202.4609938020
 -669524.472855697 -1066352.85570436 -78600.2436218219
 -801274.483300153 -965417.657556654 -132202.041621338
 -937330.729590554 -817025.392832538 -213143.242330204
 -1061325.83272370 -604423.143418037 -315926.528504598
 -1147794.66928478 -312189.370857335 -420303.015459191
 -1162227.06656830 51492.2133697480 -487981.791276349
 -1083058.20439542 430864.579275703 -482586.853464020
 -929764.910233168 749501.782223544 -406612.494965161
 -748385.246704946 971204.001761501 -297038.281027509
 -576420.577844289 1106198.17192350 -188717.653624979
 -431822.826368160 1181203.45052003 -99181.0769549507
 -319558.581899590 1219972.73399736 -33140.1864250346
 -239996.796605149 1238486.05907024 10161.2020392006
 -195147.731168525 1245968.70639114 32074.5480517736
 -591621.652400456 -1114136.46872781 -15270.2449432831
 -677849.314898677 -1063809.21796207 -19485.5071597930
 -800869.518333113 -974027.631534414 -37783.8395521204
 -933180.953930704 -845644.034525674 -74892.6232086762
 -1056836.67753148 -676564.399220858 -130024.157948066
 -1156925.72207298 -463033.219439646 -196653.355476637
 -1217344.04427851 -203557.098796805 -261127.203309086
 -1221036.76604655 91468.2286485971 -303730.489133756
 -1158959.81866188 392065.181961234 -307646.652411298
 -1040447.31331354 659704.562304761 -271677.583933361
 -889031.796933581 870126.715247794 -209884.240409056
 -729085.199599604 1020038.33704196 -139663.859349634
 -578413.757336515 1118722.16432209 -73808.3687484997
 -448403.063184815 1179027.05787126 -19476.1560084643
 -347568.824855750 1212581.26162515 19799.6682523140
 -286690.407164847 1227862.35126456 41377.3815710165
 -701982.319232194 -1047976.61323556 22699.6148792749
 -793444.437916134 -980558.397331003 22373.7409155883
 -915024.366673249 -868425.381126676 10825.7437693469
 -1034465.14123167 -721927.880359433 -15856.7983915852
 -1135184.68009702 -547549.866948181 -55626.5781530231
 -1208029.40857057 -348841.688164306 -102585.844765544
 -1246264.70976886 -128467.318977501 -147884.590334573
 -1243888.58724177 107286.539215097 -181053.063911848
 -1197908.72510725 345156.532961009 -193471.147681571
 -1111611.24700969 567930.170380630 -182551.877590856
 -994108.150431243 761660.148073432 -152224.291760169
 -857094.112147347 919178.759173067 -109770.317146144
 -712715.274744383 1039053.67226303 -62879.5214811688
 -573559.968221028 1123495.34420647 -18346.8067967558
 -454436.178675379 1176739.03574289 17956.3968761282
 -376745.118566800 1203336.38353774 39926.1143782941
 -802328.121203291 -971208.802293377 67620.1093848243
 -892907.348861675 -888591.028990095 68351.1555578446
 -1003873.09111813 -761813.573010299 58551.9241798144
 -1103984.22464200 -609529.482104628 35243.0575549204
 -1181415.80649842 -442498.149233447 1229.22724600862
 -1232635.17981836 -265887.112904913 -38262.0906931224
 -1256559.13311151 -81678.4940441553 -77053.2252646115
 -1252205.52633153 108085.053817956 -108850.226848128
 -1218857.20390216 299063.988339434 -128441.731120685
 -1157015.89369566 484941.778255504 -133023.021905888
 -1068595.35747777 659265.551790247 -122565.595166891
 -956707.005166322 816342.666513912 -99225.9442565167
 -826350.401825113 950915.531340308 -66739.0184090806
 -686454.254988093 1058026.45561301 -30166.3048891971
 -553338.750586388 1133732.52696265 4026.82571438785
 -457599.254086024 1175337.40080766 27098.8531410207
 -874605.164810330 -903129.801543839 104746.351580549
 -959737.900538304 -812228.298988444 103623.276881310
 -1057774.08606527 -681345.423638862 91824.9827341374
 -1141821.65337581 -532215.831952650 67372.4796933592
 -1203664.11788745 -376325.291484888 33487.2694915144
 -1242540.98979520 -218211.254339543 -5016.77957374311
 -1259465.51318187 -58580.5233939600 -43178.4008893640
 -1255052.43226861 102760.268552621 -76375.0638794977
 -1229261.77840482 265171.134298324 -100743.141736367
 -1181680.73740122 426929.006646848 -113629.613470249
 -1111592.83852008 585631.197201603 -113784.415163270
 -1018136.88369339 738024.200342199 -101326.189562845
 -901521.330204655 879062.047644406 -77837.2564791899
 -766091.641575640 1001232.51558083 -46759.7836884265
 -625630.801245523 1095416.31961251 -14093.1961746530
 -512950.117454469 1152531.08230496 10183.9208239006
 535180.190711194 -1141586.32413176 43729.3830807510
 651661.835606150 -1080022.15736968 20938.5415898992
 795422.756869690 -979116.068595776 -13557.0273411415
 930782.253880043 -850140.715466573 -49543.8259213443
 1043839.48012575 -704006.391368039 -79520.8875874858
 1131467.07257638 -549140.426034994 -98876.1199102065
 1194902.18539267 -390717.867330726 -105345.841927022
 1236215.32358254 -231597.211512350 -98406.4849406967
 1256947.89006837 -73445.2036947279 -78976.1649225425
 1257869.58566266 82940.2458471973 -49340.1662198601
 1238875.27303972 237844.214674214 -12946.7492340593
 1198759.70978709 392234.147281377 26018.5091151552
 1135580.06232204 545922.291120471 63057.1568769340
 1049054.06471727 694431.479175256 93807.8938555013
 946977.368880950 825565.135452952 115002.177678592
 857919.544634286 916340.855496878 125868.671243891
 477579.322180644 -1166699.85320467 47737.5583437301
 577278.876573078 -1121447.74384614 25563.3996934339
 714756.379032352 -1039501.65579047 -10443.0436362055
 856259.887861183 -925049.491962774 -51496.3375233872
 984489.930772820 -783747.056935560 -89830.7178571476
 1091071.33742704 -622012.121685492 -119221.172785870
 1172339.60503167 -445977.267170105 -135179.726884737
 1226757.98418030 -261458.658523454 -135106.065933266
 1253772.98637177 -74241.8614847334 -118704.993857300
 1253596.16971025 110576.846631159 -88424.1776657318
 1226824.96873640 289896.554746068 -49090.8805201197