# OOMMF OVF 2.0
#
# Segment count: 1
#
# Begin: Segment
# Begin: Header
#
# Title: Oxs_MinDriver::Magnetization
# Desc: Oxs vector field output
# Desc:  MIF source file: C:/Users/grl31/Documents/GitHub/phd-work/Skyrmions/stdprob3/drive-90/stdprob3.mif
# Desc:  Iteration: 543, State id: 1151
# Desc:  Stage: 0, Stage iteration: 543
# Desc:  Stage simulation time: -1 s
# Desc:  Total simulation time: -2 s
# meshunit: m
# meshtype: rectangular
# xbase: 3.1249999999999999e-09
# ybase: 3.1249999999999999e-09
# zbase: 3.1249999999999999e-09
# xnodes: 16
# ynodes: 16
# znodes: 16
# xstepsize: 6.2499999999999997e-09
# ystepsize: 6.2499999999999997e-09
# zstepsize: 6.2499999999999997e-09
# xmin: 0
# ymin: 0
# zmin: 0
# xmax: 9.9999999999999995e-08
# ymax: 9.9999999999999995e-08
# zmax: 9.9999999999999995e-08
# valuedim: 3
# valuelabels: Magnetization_x Magnetization_y Magnetization_z
# valueunits: A/m A/m A/m
#
# End: Header
#
# Begin: Data Text
 501892.097561816 -1157377.09550661 -11489.6527644086
 608587.461364990 -1104335.13500693 -40182.6128754238
 744483.869328591 -1015911.13880259 -72234.0451955557
 879033.557517583 -899394.288362919 -99696.2874789891
 997994.320525448 -762601.922955382 -118300.778622363
 1095832.06613260 -612336.997052496 -125478.746388567
 1171116.19413363 -453456.483192483 -120056.272670872
 1223665.90547674 -289403.350760411 -102161.065291029
 1253408.45944402 -123069.527282494 -73284.0785409052
 1260305.16930817 43108.4430233683 -36358.9503996729
 1244344.99638293 207689.984127803 4453.24473907069
 1205248.24113456 370093.919108600 44233.4624445179
 1142705.58181002 528907.902597682 77651.8820692705
 1058568.75393526 679069.467592400 99228.4349099302
 962249.054236585 809147.510350280 104434.166026716
 880170.881463837 898861.698445279 94320.1855924501
 447938.690033212 -1179196.97486595 19870.9676983561
 538962.580593021 -1140625.61534793 -6478.67668752321
 667456.917077958 -1069781.88274569 -40217.1370540851
 805433.269439169 -968169.037458975 -73995.9073547128
 936852.074858610 -838631.941974483 -102733.084506302
 1052227.22210922 -685161.007357226 -122154.402165887
 1145620.36981094 -512321.449512929 -128957.867391564
 1212792.32613883 -325540.783281837 -121274.082136201
 1250742.75282379 -131577.517608065 -99394.9396993037
 1258269.22874921 62432.2794271503 -66409.2567897031
 1235996.88689056 251175.828188352 -27781.8258884876
 1185327.86418678 431794.517198167 10038.9351502282
 1108083.09248959 601697.651246365 40758.1592108836
 1008752.87567412 755318.887749512 58825.5433208512
 900015.129276659 881961.474420814 60548.7871846985
 812062.298890671 964238.449168475 48460.9820838013
 368418.238012843 -1205883.29195377 40778.9039236595
 442230.395113902 -1181395.85605649 16897.9243967110
 556742.185981258 -1131927.78443962 -18084.8024978157
 692860.933530901 -1052610.70381020 -59193.4449905081
 836722.124852236 -938666.297994131 -101740.344562546
 976130.812763268 -786868.962061534 -139840.279738276
 1098684.75033402 -597249.629813395 -166535.671824933
 1191524.26562050 -375721.650077330 -175078.830872386
 1243725.29617098 -136000.820384289 -161865.979866540
 1250594.43835661 103619.901346113 -129714.678103496
 1214924.45386342 328450.169601542 -87341.2182897238
 1143358.73231599 531276.139833495 -45010.0366511293
 1043455.90639746 708959.766344706 -11191.6052319833
 925141.278645933 857666.956904277 8392.64552322600
 805510.742501817 970863.406325063 11230.3558278680
 715738.730286813 1038877.62449619 884.424972368565
 278626.933964798 -1229576.01962574 45379.2303774236
 335964.682653975 -1215785.40721525 23302.5005230254
 432185.884954710 -1185153.83324098 -13235.6835518338
 558364.265199014 -1129546.49709388 -62477.9094613480
 707279.246263171 -1037516.10600102 -121925.503947391
 868929.490959158 -895574.522116996 -185626.630619980
 1026375.20570863 -692406.524755289 -242232.476150115
 1154181.53436492 -428370.102071414 -275523.995872061
 1225436.69537577 -126363.964216414 -271820.685550183
 1227827.71431473 173192.462758830 -232363.735817695
 1170303.27891246 437862.375223594 -173828.095109069
 1071277.40220065 656260.384693121 -115049.841093416
 947949.985966526 829607.540182132 -68495.1406887352
 815934.741772563 961354.226494951 -39974.7331171919
 693673.971056921 1053296.81374427 -30523.3509503488
 608039.970565793 1104782.43799507 -35952.6050652971
 186323.927274145 -1247200.41713389 36386.0487708317
 227777.982972602 -1240737.88497912 15366.2672576705
 302700.532747973 -1224484.22088223 -23668.7811997839
 410600.941308773 -1190015.21195888 -82583.8556968985
 552668.424938011 -1122300.42614529 -162938.014194345
 726399.924226865 -997723.257252457 -261612.084850271
 916438.691299282 -787011.704327961 -363733.602048821
 1084513.69938867 -474024.311402838 -436669.690906431
 1177640.34604477 -91499.9836726173 -443103.147443589
 1170080.31588591 279255.846010377 -380102.167534361
 1084778.36815643 577831.763601182 -284456.984221487
 959695.793966856 795845.702115181 -192777.157324393
 821954.589167712 949122.225989170 -122910.879902692
 688618.261239739 1054085.74559204 -79104.7542552017
 574410.652599826 1121635.75668773 -59456.3908957453
 498603.332395614 1157381.97972784 -58404.6303319921
 93957.0860883052 -1257929.97817004 18266.5517781943
 119514.320401679 -1255890.44066884 -2226.92040996612
 170263.186625222 -1249228.97901202 -44573.9407698668
 251355.542207462 -1230952.80396283 -114564.465418387
 371053.181844624 -1185586.41169832 -219667.538699383
 536810.309366985 -1082137.02977391 -363818.047199924
 742863.134718673 -869551.843993795 -532525.477889924
 945490.413128055 -501012.672153607 -668269.116407003
 1059864.71282220 -18268.7877708432 -684033.970520954
 1041468.08330747 427299.504009697 -569481.164081741
 935507.074933104 741425.637206545 -408244.985470650
 800902.366402384 937416.759661680 -267122.910128298
 668102.753271275 1057085.78363667 -166606.686611174
 549553.262433570 1130737.98912697 -104748.473080424
 453480.394796664 1174909.23732632 -74116.4387925630
 391777.102634211 1197342.25643166 -66570.6672163190
 1273.43576215447 -1261557.38319181 -4558.31049293667
 10277.3461640774 -1261284.52192640 -24600.0370664931
 33588.9136841150 -1259166.00370748 -70158.3274017174
 78909.3786669344 -1250025.33439877 -150862.202816289
 157554.334383168 -1219717.66266618 -281095.866238155
 283935.552915923 -1133388.18280753 -475774.379072201
 466154.260550549 -919190.824698139 -727556.089989137
 672429.300417783 -489417.434855300 -948608.897975485
 802463.947728889 104089.874720558 -967866.902778982
 793219.921325899 609357.198632687 -768788.262010557
 702083.744916477 910102.523638822 -519943.499343205
 593230.798558675 1065391.01236056 -323370.749050896
 491554.990706743 1145727.12931656 -192957.164101983
 403716.903623869 1189665.23404200 -115146.530816607
 333612.758808535 1214322.50030457 -75318.1474358732
 288718.151692362 1226501.05866966 -62341.1010851368
 -92802.5771546851 -1257835.86297438 -28036.6618538156
 -101331.217204401 -1256608.97851963 -47066.8720300307
 -108575.785454736 -1253349.84791892 -94206.6263776952
 -106940.184187455 -1243801.81497125 -181852.338448331
 -87142.4158752991 -1214609.76614875 -329664.596598480
 -35831.4330791906 -1128786.84440655 -562232.869207358
 63808.1953109967 -900416.687268016 -881321.583997237
 212604.680169615 -411537.019117710 -1173450.45178083
 349387.645561429 265076.978883448 -1182882.87641424
 401298.309662096 787492.567488712 -900202.507067901
 386923.363677113 1050852.63526012 -580989.225826602
 347024.559677017 1162336.57013078 -346550.261342488
 300702.766360781 1209117.17199165 -197896.290053274
 255373.644949645 1230474.10079465 -110757.481271833
 216012.398818899 1241220.97202403 -65257.7434730069
 189237.858752696 1246351.27137411 -48445.5578746202
 -189237.833810321 -1246351.27754051 -48445.4966623343
 -216012.372193445 -1241220.97972896 -65257.6850569491
 -255373.611590015 -1230474.11304668 -110757.422073675
 -300702.728126068 -1209117.19485681 -197896.208447987
 -347024.520266496 -1162336.61717687 -346550.143013394
 -386923.322091894 -1050852.73050555 -580989.081247958
 -401298.275949085 -787492.763336000 -900202.350770468
 -349387.640422366 -265077.295708144 -1182882.80693360
 -212604.699597721 411536.713828793 -1173450.55532771
 -63808.2104342301 900416.512841548 -881321.761107940
 35831.4361405518 1128786.76709483 -562233.024229866
 87142.4273105801 1214609.73377297 -329664.712860397
 106940.201777916 1243801.80228115 -181852.414899585
 108575.803584506 1253349.84179893 -94206.6869045208
 101331.234088481 1256608.97526324 -47066.9226200448
 92802.5901226965 1257835.86084136 -28036.7146245719
 -288718.114088684 -1226501.07080280 -62341.0365298208
 -333612.720526247 -1214322.51482310 -75318.0829266150
 -403716.855961314 -1189665.25649396 -115146.465958880
 -491554.932546653 -1145727.16749329 -192957.085580736
 -593230.737516960 -1065391.07629689 -323370.650385898
 -702083.680924414 -910102.638470717 -519943.384751857
 -793219.869479498 -609357.398512289 -768788.157075938
 -802463.940357275 -104090.153031483 -967866.878959660
 -672429.342832371 489417.178474415 -948609.000184545
 -466154.315176438 919190.674211622 -727556.245113547
 -283935.586311991 1133388.11685362 -475774.516257033
 -157554.347927578 1219717.63639186 -281095.972654745
 -78909.3794174032 1250025.32517338 -150862.278864191
 -33588.9104410062 1259166.00085095 -70158.3802220003
 -10277.3368749294 1261284.52114825 -24600.0808440068
 -1273.42620555252 1261557.38302752 -4558.35862974152
 -391777.050172501 -1197342.27703935 -66570.6053097641
 -453480.340651846 -1174909.26178755 -74116.3823123324
 -549553.202794994 -1130738.02303685 -104748.419918547
 -668102.688114897 -1057085.83508121 -166606.621486835
 -800902.296310105 -937416.841468487 -267122.833197389
 -935507.011490821 -741425.759179651 -408244.909331820
 -1041468.04054339 -427299.687107455 -569481.104904753
 -1059864.71619106 18268.5686659659 -684033.971152811
 -945490.462597703 501012.477442473 -668269.192393822
 -742863.195826186 869551.721910066 -532525.591994505
 -536810.356839923 1082136.97087083 -363818.152354780
 -371053.210329316 1185586.38638776 -219667.627189980
 -251355.556621329 1230952.79472467 -114564.533054831
 -170263.186924412 1249228.97718008 -44573.9909689737
 -119514.311452636 1255890.44144386 -2226.96360483476
 -93957.0765635688 1257929.97948372 18266.5103034234
 -498603.267288995 -1157382.00983225 -58404.5895830617
 -574410.586327259 -1121635.79296734 -59456.3467483594
 -688618.193967895 -1054085.79283635 -79104.7103269293
 -821954.521761717 -949122.290634060 -122910.831483543
 -959695.732277418 -795845.788928748 -192777.106036589
 -1084778.31935149 -577831.879153888 -284456.935611356
 -1170080.29292098 -279255.989079682 -380102.133116923
 -1177640.35752118 91499.8224740420 -443103.150229792
 -1084513.73764591 474024.174465831 -436669.744541852
 -916438.740969199 787011.611724402 -363733.677270476
 -726399.962704691 997723.208660707 -261612.163328389
 -552668.449433034 1122300.40423255 -162938.082042517
 -410600.951734835 1190015.20413237 -82583.9166375695
 -302700.531291488 1224484.22028029 -23668.8309679062
 -227777.975620190 1240737.88682255 15366.2273978978
 -186323.913975356 1247200.42031362 36386.0078793520
 -608039.901474885 -1104782.47695918 -35952.5762261420
 -693673.901352835 -1053296.86052449 -30523.3207586245
 -815934.673152722 -961354.286107685 -39974.7001051575
 -947949.927517198 -829607.609704682 -68495.1075565049
 -1071277.35431726 -656260.469855348 -115049.801178491
 -1170303.24726689 -437862.473437804 -173828.060768267
 -1227827.70314284 -173192.569506581 -232363.715286275
 -1225436.70549225 126363.857736218 -271820.689443010
 -1154181.55866748 428370.013364859 -275524.031983868
 -1026375.23527659 692406.463780282 -242232.525159520
 -868929.513689639 895574.488667367 -185626.685598341
 -707279.261558344 1037516.09024100 -121925.549330184
 -558364.269106669 1129546.49236874 -62477.9599651362
 -432185.874258455 1185153.83661995 -13235.7302565434
 -335964.665187830 1215785.41287490 23302.4570546366
 -278626.911789444 1229576.02618374 45379.1888405715
 -715738.661492597 -1038877.67187649 884.443452296040
 -805510.678928086 -970863.458799942 11230.3792803220
 -925141.220144488 -857667.019694341 8392.67759111367
 -1043455.85914975 -708959.836398753 -11191.5726540722
 -1143358.69753668 -531276.217418357 -45010.0043527189
 -1214924.43412555 -328450.249653818 -87341.1918055469
 -1250594.43350225 -103619.979847880 -129714.662195353
 -1243725.30392409 136000.753972703 -161865.976093606
 -1191524.27987252 375721.595941109 -175078.850055294
 -1098684.76382470 597249.595895023 -166535.704465004
 -976130.822901351 786868.942617249 -139840.318382425
 -836722.128449064 938666.290713361 -101740.382154983
 -692860.925714395 1052610.70668584 -59193.4853466252
 -556742.163483759 1131927.79487809 -18084.8417411128
 -442230.369584243 1181395.86612875 16897.8883363736
 -368418.208720332 1205883.30222507 40778.8648325064
 -812062.224476444 -964238.510662456 48461.0054866076
 -900015.071106604 -881961.532050689 60548.8123973388
 -1008752.82893619 -755318.947446994 58825.5782781167
 -1108083.05744053 -601697.713516761 40758.1928070754
 -1185327.84041631 -431794.581715746 10038.9667739452
 -1235996.87497667 -251175.889777620 -27781.7991006801
 -1258269.22702226 -62432.3319259522 -66409.2401555826
 -1250742.75745984 131577.475642048 -99394.9369152458
 -1212792.33390000 325540.749460514 -121274.095309073
 -1145620.37549166 512321.430869591 -128957.890991744
 -1052227.22291561 685161.001387818 -122154.428701974
 -936852.068566493 838631.945859108 -102733.110174881
 -805433.252643867 968169.049413327 -73995.9337569928
 -667456.889393967 1069781.89902421 -40217.1634956973
 -538962.554258977 1140625.62763421 -6478.70431858211
 -447938.663784730 1179196.98528320 19870.9412139211
 -880170.808982733 -898861.766698180 94320.2115236283
 -962248.997802945 -809147.573543267 104434.196388084
 -1058568.71156858 -679069.528005567 99228.4734402247
 -1142705.55429774 -528907.955890992 77651.9239379934
 -1205248.22325340 -370093.973408170 44233.4953448091
 -1244344.98815280 -207690.033026255 4453.26391783245
 -1260305.16842597 -43108.4819461520 -36358.9348310132
 -1253408.46277625 123069.497783496 -73284.0710875198
 -1223665.91039223 289403.328570272 -102161.069274756
 -1171116.19629533 453456.473225927 -120056.289228051
 -1095832.06257039 612336.999881886 -125478.763690654
 -997994.311729886 762601.931560118 -118300.797353704
 -879033.537465269 899394.306689158 -99696.2989552715
 -744483.836483905 1015911.16195974 -72234.0580250590
 -608587.432121943 1104335.15051688 -40182.6295187613
 -501892.074016171 1157377.10556313 -11489.6682728826
 513350.327165539 -1152288.52982141 15875.0294487948
 626851.673272359 -1094773.28730022 -8823.83411348205
 767921.759097980 -1000037.82799665 -42070.7190163895
 903523.768269397 -877360.991055159 -73701.5770925706
 1019937.82443034 -736036.592667928 -97603.2759135097
 1112983.64803408 -583654.576894006 -110291.273446169
 1182613.83227543 -425241.942001755 -110196.394643128
 1229801.48705426 -263974.338165532 -97238.2751192373
 1255320.28916625 -102151.804868321 -72700.8341675808
 1259592.46705160 58615.9442167532 -39248.1712872681
 1242620.80791278 217812.828791517 -728.199818442618
 1203697.94453011 375760.964662200 38267.3057462950
 1141655.10509247 531858.975643120 72794.7935164149
 1057059.65469902 681592.878500887 98007.4757527420
 958016.863826580 813342.903684411 110573.236224007
 871693.638256463 905037.454496592 112280.175901594
 457465.143110234 -1175258.88898337 32274.1014385976
 553760.392456093 -1133498.56544059 8936.48756199470
 687417.467915407 -1057520.00245886 -25653.4622058365
 827628.504261263 -950083.004216759 -62632.0600944541
 958028.830797857 -815243.773198757 -95434.6925373500
 1069743.22218536 -658065.902614882 -118945.942861058
 1157877.42796323 -483856.270540083 -129431.071197163
 1219429.57304687 -298284.541036410 -124768.905887609
 1252563.25719960 -107722.734083687 -105026.330955648
 1256802.67560519 81631.3031810569 -73025.9943550919
 1232827.09699211 265580.203974961 -33969.6202153121
 1181507.62553467 442215.616180006 5874.56627501637
 1103756.41011461 609626.040460393 40339.9162425419
 1002938.81730195 762591.867336405 64162.3218118518
 890859.171846688 890155.932037975 74443.1562549118
 799137.400051330 973369.202104085 74035.4182362197
 376144.981491451 -1203365.67666268 44445.8327397598
 454124.414508970 -1176784.01635696 22356.7867238365
 573600.754823125 -1123535.60154022 -14119.3858559584
 713088.363118506 -1039034.68572789 -58833.1467649534
 857718.280119410 -919054.857662562 -105862.889979460
 994860.236154135 -761437.970543782 -148373.712134120
 1112369.72545230 -567679.572695365 -178669.884313294
 1198595.97547644 -344975.604405669 -189496.572147299
 1244480.70306589 -107247.879879132 -176960.738235962
 1246767.25141373 128367.720050502 -143675.259422904
 1208419.93433377 348733.583204638 -98262.8168178287
 1135333.36628698 547676.175410174 -51170.1592973430
 1034097.36039348 722541.337667695 -11229.2255993361
 913784.669049884 869656.359128495 15646.9343872124
 791075.004698565 982344.538153206 27367.4299247130
 698613.507988886 1050102.63216384 27803.9439107342
 285908.339468579 -1227907.66623756 45261.6342645079
 346869.897251727 -1212711.78490801 23681.8927611428
 447830.763200471 -1179302.70909260 -15561.4516383614
 578049.688991409 -1119165.60928061 -69830.7022694564
 729026.689453608 -1020627.87238432 -135603.329957364
 889346.433986356 -870796.407662398 -205732.757909303
 1041135.25633183 -660348.832308820 -267443.879365703
 1159927.66308636 -392552.388635120 -303347.769899232
 1222094.85504850 -91704.5837618376 -299372.452807542
 1218275.72897385 203569.576711203 -256735.479725361
 1157551.28579563 463299.599693809 -192296.470574470
 1056965.86969032 677168.505977389 -125759.276958353
 932580.505926786 846663.998432085 -70732.6278551069
 799330.709974391 975440.100100830 -33711.3946028893
 675306.699474307 1065490.92794668 -15471.7493318083
 588292.671853429 1115945.32046679 -11278.5145641839
 194481.427889326 -1245981.98883676 35430.0524902982
 239281.705628849 -1238591.37208979 13605.4862108018
 318788.664776792 -1220267.76884119 -29492.2100921264
 431091.723204824 -1181794.46798488 -95242.8083562582
 575922.721853903 -1107173.67686057 -184469.234937388
 748386.885068263 -972560.510358940 -292562.053019756
 930509.958311525 -751015.033424734 -402090.870291882
 1084553.31866562 -432023.433570600 -478172.858636092
 1164036.76828268 -51825.4368865170 -483613.437671543
 1149291.15666637 312609.907627413 -415877.763027336
 1062141.28776231 605257.703700254 -311558.064991226
 937338.722576190 818083.780985175 -209008.318894705
 800425.031645956 966636.883692253 -128383.545360192
 667814.276757258 1067678.17020541 -75078.9420873935
 553742.081500057 1132572.25262026 -46895.9560048960
 477845.295063697 1166967.24715523 -37426.5810807925
 103926.920818075 -1257145.50229191 18270.5258665428
 132646.863744011 -1254566.08664098 -4263.18052205032
 187925.856481956 -1246410.72074877 -51900.0827265054
 273739.957487055 -1224587.72932433 -130386.961703263
 396662.867332277 -1171890.90265521 -246738.146367037
 560608.933244142 -1055925.23888943 -402851.020554886
 754638.983870869 -828269.377857917 -579688.944731702
 934465.035836203 -452935.883361660 -716361.370595867
 1028417.71700107 21284.8696202838 -730378.932200611
 1003979.39429439 456100.363551390 -612819.112886917
 900629.708689489 764593.696255106 -442506.540507362
 770279.399143739 956569.905857321 -288432.129593480
 641404.271326724 1072090.24786136 -175420.899790620
 526040.342917606 1141991.20162178 -103378.353442746
 432004.188540284 1183535.23991281 -64545.7038626552
 371318.417371633 1204656.91450870 -49737.1306566170
 13585.9689302317 -1261490.81354824 -2404.10078637213
 25583.2946711385 -1261046.71416684 -25614.6567756975
 53456.9445522317 -1258053.43191728 -77416.7193779198
 103987.969166097 -1246028.25438121 -167778.194266654
 186757.231003104 -1208358.81131105 -310709.109480150
 311863.476970423 -1107315.48594022 -517825.276756413
 479372.502048447 -873892.606795284 -773345.425400131
 653758.156423799 -440044.729714972 -985144.831828491
 755290.083062151 130750.515918697 -1001993.32529409
 741506.288547839 620570.758784998 -810314.623034765
 657666.969135495 920857.538347749 -557714.068941433
 556848.942355287 1077058.56219380 -348444.457441611
 461837.871695914 1155992.59700731 -204783.609819306
 379183.199337749 1197581.28785508 -116484.296101721
 312571.588878826 1220290.94537948 -68836.3375666178
 269536.754560977 1231435.04030093 -49670.0148857021
 -77971.0185825628 -1258946.26639798 -22896.4954247107
 -83723.5833612050 -1257939.65306522 -46126.1504385027
 -86398.9302973690 -1254610.79406963 -100181.890411387
 -78943.3984563822 -1243414.69545646 -198083.986939977
 -53316.3593388929 -1208220.93968205 -359038.936133142
 454.990825733905 -1108262.61077799 -602746.389001094
 91283.0797211632 -860836.405129787 -917702.301336767
 211284.755704347 -376086.873075199 -1185523.87020525
 313784.195515845 261746.512715367 -1193556.73205959
 353222.793648080 770445.242078549 -934450.222283094
 342246.377240896 1044226.54268058 -619683.609389345
 309753.358868422 1164301.52247823 -374171.421067342
 270718.561693830 1213757.24444085 -212259.847452912
 231424.567047141 1234848.65225434 -114633.793933757
 196368.674158107 1244659.91583219 -61728.9935843568
 172022.240419118 1249151.35074395 -39732.6396645186
 -172022.220078625 -1249151.35544435 -39732.5799530659
 -196368.652633179 -1244659.92208455 -61728.9359901148
 -231424.539503050 -1234848.66343127 -114633.729141004
 -270718.528200986 -1213757.26661203 -212259.763389413
 -309753.322753286 -1164301.56842926 -374171.307979944
 -342246.340459188 -1044226.63872021 -619683.467867543
 -353222.756771597 -770445.424539037 -934450.085785479
 -313784.172192517 -261746.797284040 -1193556.67578543
 -211284.750690579 376086.597273768 -1185523.95859199
 -91283.0854741669 860836.236323552 -917702.459110562
 -454.992473418541 1108262.52897743 -602746.539405532
 53316.3693819663 1208220.90489516 -359039.051704965
 78943.4102908691 1243414.68139494 -198084.070490567
 86398.9436571553 1254610.78831107 -100181.951005925
 83723.5946529712 1257939.65028957 -46126.2056393423
 77971.0288424962 1258946.26489796 -22896.5429633333
 -269536.722070601 -1231435.05002056 -49669.9502239915
 -312571.555883524 -1220290.95730742 -68836.2759397444
 -379183.158269573 -1197581.30738298 -116484.229020701
 -461837.821938462 -1155992.63051245 -204783.532899978
 -556848.886548172 -1077058.62343116 -348444.357339303
 -657666.907499387 -920857.648926032 -557713.959044927
 -741506.238706254 -620570.946889019 -810314.524586549
 -755290.063160013 -130750.772300050 -1001993.30684074
 -653758.179592082 440044.489167063 -985144.923901605
 -479372.542067487 873892.457979889 -773345.568757316
 -311863.504859369 1107315.41624270 -517825.409000982
 -186757.245955704 1208358.78157691 -310709.216129737
 -103987.977846570 1246028.24296359 -167778.273681109
 -53456.9435864825 1258053.42818196 -77416.7807452885
 -25583.2886146978 1261046.71329972 -25614.7055142259
 -13585.9650452111 1261490.81350987 -2404.14287141266
 -371318.370648870 -1204656.93139345 -49737.0705142832
 -432004.140884488 -1183535.26039926 -64545.6471751179
 -526040.287388179 -1141991.23249025 -103378.295008771
 -641404.209262639 -1072090.29628402 -175420.830783476
 -770279.335745909 -956569.979218417 -288432.055603866
 -900629.646109029 -764593.813774282 -442506.464818963
 -1003979.35216183 -456100.531153183 -612819.057172219
 -1028417.71075131 -21285.0779508227 -730378.934929402
 -934465.067260124 452935.697486365 -716361.447128491
 -754639.035108046 828269.254291284 -579689.054585224
 -560608.976601164 1055925.17380590 -402851.130811522
 -396662.895303951 1171890.87401900 -246738.237407616
 -273739.972848532 1224587.71835215 -130387.032502929
 -187925.858501395 1246410.71809584 -51900.1391257156
 -132646.864193102 1254566.08644004 -4263.22568219575
 -103926.919285610 1257145.50298041 18270.4872100370
 -477845.235896985 -1166967.27281397 -37426.5364498477
 -553742.019076663 -1132572.28508094 -46895.9091435055
 -667814.213517187 -1067678.21310917 -75078.8944736186
 -800424.972127148 -966636.940237888 -128383.490689970
 -937338.663618845 -818083.861993079 -209008.266225717
 -1062141.23891858 -605257.811873373 -311558.021359928
 -1149291.12784787 -312610.050933054 -415877.734947135
 -1164036.77003861 51825.2840678199 -483613.449821584
 -1084553.35124326 432023.294500014 -478172.910394692
 -930510.001598211 751014.937722399 -402090.948869124
 -748386.921031568 972560.458471047 -292562.133514284
 -575922.749712437 1107173.65015463 -184469.308249104
 -431091.737513340 1181794.45756107 -95242.8729334986
 -318788.666258938 1220267.76725218 -29492.2598182685
 -239281.703081511 1238591.37306567 13605.4421705533
 -194481.422387806 1245981.99080844 35430.0133503896
 -588292.608506850 -1115945.35415728 -11278.4852684312
 -675306.632928589 -1065490.97061214 -15471.7156647833
 -799330.645709294 -975440.154163757 -33711.3540799347
 -932580.449545861 -846664.063789098 -70732.5888959559
 -1056965.82383770 -677168.584962203 -125759.237029857
 -1157551.25265997 -463299.695712306 -192296.438701217
 -1218275.71419689 -203569.685398452 -256735.463665961
 -1222094.86171241 91704.4750624055 -299372.458901300
 -1159927.68507417 392552.293788063 -303347.808561649
 -1041135.28513556 660348.765980094 -267443.931008387
 -889346.457849142 870796.368825578 -205732.819137654
 -729026.705138565 1020627.85312253 -135603.390607509
 -578049.691039630 1119165.60486911 -69830.7560169558
 -447830.756330544 1179302.71104044 -15561.5017284096
 -346869.886708062 1212711.78869119 23681.8534644726
 -285908.324554387 1227907.67109925 45261.5965811101
 -698613.438005309 -1050102.67804142 27803.9696371756
 -791074.941938224 -982344.587882440 27367.4590429363
 -913784.613853437 -869656.416466585 15646.9710224386
 -1034097.31407520 -722541.404493974 -11229.1911230361
 -1135333.33211664 -547676.249264060 -51170.1269875820
 -1208419.91320725 -348733.664180020 -98262.7892476070
 -1246767.24525541 -128367.795449248 -143675.245497211
 -1244480.70861527 107247.805061134 -176960.744553552
 -1198595.98888700 344975.542487244 -189496.600044932
 -1112369.74330729 567679.526247608 -178669.920727330
 -994860.250734098 761437.942935143 -148373.756058607
 -857718.287585749 919054.845884555 -105862.931737420
 -713088.359268701 1039034.68591797 -58833.1900696989
 -573600.735952111 1123535.61069723 -14119.4238322296
 -454124.389709589 1176784.02662728 22356.7498694102
 -376144.956336276 1203365.68581218 44445.7979062616
 -799137.329778456 -973369.258003165 74035.4418361966
 -890859.111495066 -890155.989672424 74443.1893156362
 -1002938.76643145 -762591.931035766 64162.3598931665
 -1103756.37321991 -609626.104728279 40339.9545016939
 -1181507.60117725 -442215.680823583 5874.59897149017
 -1232827.08385306 -265580.267722619 -33969.5986684530
 -1256802.67265911 -81631.3600383894 -73025.9815007452
 -1252563.26172142 107722.686306242 -105026.326031683
 -1219429.58230902 298284.499232886 -124768.915303379
 -1157877.43733047 483856.240401750 -129431.100065863
 -1069743.22961914 658065.885108152 -118945.972860793
 -958028.831801831 815243.768235109 -95434.7248604662
 -827628.492252271 950083.012837932 -62632.0880059487
 -687417.442168587 1057520.01851678 -25653.4901646194
 -553760.362306371 1133498.58037214 8936.46191823423
 -457465.112781072 1175258.90148578 32274.0760609202
 -871693.562224568 -905037.523781650 112280.207705441
 -958016.807475704 -813342.965038448 110573.273151696
 -1057059.61299046 -681592.937340487 98007.5164004584
 -1141655.07488465 -531859.034732790 72794.8355460112
 -1203697.92548751 -375761.022386444 38267.3379150848
 -1242620.79881497 -217812.880763162 -728.179273756291
 -1259592.46547085 -58615.9879108102 -39248.1567625806
 -1255320.29233432 102151.769497289 -72700.8291645020
 -1229801.49286501 263974.310407243 -97238.2769848200
 -1182613.83866661 425241.919470509 -110196.413000638
 -1112983.65074413 583654.567578757 -110291.295393966
 -1019937.82204271 736036.592999222 -97603.2983654621
 -903523.752591848 877361.005299565 -73701.5997182960
 -767921.731780901 1000037.84825473 -42070.7360955037
 -626851.641500853 1094773.30536847 -8823.84945621042
 -513350.293376756 1152288.54507934 15875.0145793528
 535355.726465856 -1141226.84964277 50447.5441780588
 652726.720307344 -1079238.63556343 27225.4848064701
 797162.479466785 -977761.920256545 -7939.74467829789
 932722.440605893 -848284.912204396 -44620.4822421181
 1045581.65772507 -701897.087508649 -75159.2076509621
 1132800.22657401 -547093.737156176 -94876.3424532544
 1195788.52766543 -389017.293899265 -101512.428155324
 1236730.17950507 -230439.615780339 -94580.5344630463
 1257219.91283181 -72922.7445563233 -75031.9600203882
 1258032.74824607 82846.4490687071 -45160.8363087779
 1239023.91134473 237273.448738945 -8395.74645238846
 1198893.77278307 391452.573801772 31113.2602742159
 1135539.19250186 545302.213115038 68888.8204501847
 1048473.10975780 694367.737508005 100533.646814259
 945367.965614826 826308.653251384 122649.297063308
 855085.254419964 917803.344020066 134222.428446530
 477237.571239515 -1166581.78175044 53671.9480205767
 577566.054840886 -1121155.90406862 31246.1515479464
 715670.547826978 -1038911.94247548 -5203.23686000234
 857543.910484754 -924111.264659366 -46757.2779269469
 985837.679233550 -782534.310620936 -85519.3184220906
 1092245.52917748 -620710.190559585 -115186.779824079
 1173225.31015938 -444817.571007345 -131259.784562883
 1227358.93514138 -260642.441413051 -131167.804669473
 1254171.44177161 -73883.4584691795 -114650.164099764
 1253897.19814548 110485.124293072 -84168.1929936633
 1227091.32962901 289504.593906487 -44535.2644014506