# OOMMF OVF 2.0
#
# Segment count: 1
#
# Begin: Segment
# Begin: Header
#
# Title: Oxs_MinDriver::Magnetization
# Desc: Oxs vector field output
# Desc:  MIF source file: C:/Users/grl31/Documents/GitHub/phd-work/Skyrmions/stdprob3/drive-238/stdprob3.mif
# Desc:  Iteration: 2211, State id: 5006
# Desc:  Stage: 0, Stage iteration: 2211
# Desc:  Stage simulation time: -1 s
# Desc:  Total simulation time: -2 s
# meshunit: m
# meshtype: rectangular
# xbase: 3.1249999999999999e-09
# ybase: 3.1249999999999999e-09
# zbase: 3.1249999999999999e-09
# xnodes: 16
# ynodes: 16
# znodes: 16
# xstepsize: 6.2499999999999997e-09
# ystepsize: 6.2499999999999997e-09
# zstepsize: 6.2499999999999997e-09
# xmin: 0
# ymin: 0
# zmin: 0
# xmax: 9.9999999999999995e-08
# ymax: 9.9999999999999995e-08
# zmax: 9.9999999999999995e-08
# valuedim: 3
# valuelabels: Magnetization_x Magnetization_y Magnetization_z
# valueunits: A/m A/m A/m
#
# End: Header
#
# Begin: Data Text
 432866.032962153 -1142092.91079617 -315911.714780719
 512463.899259819 -1104715.36666871 -329445.202606436
 625617.630302850 -1039229.53780892 -346632.340266548
 750828.662634884 -946509.037230927 -363216.729687730
 874356.124633813 -827914.125168335 -376309.712312936
 986720.069219046 -686212.921217927 -383464.160871485
 1081158.20978823 -525554.788291228 -382672.863985173
 1152840.61894616 -351464.456390467 -372801.118722767
 1198725.61266935 -170662.644840327 -354232.406910423
 1217782.81246658 9643.80418815236 -329334.859407132
 1211087.02221734 182801.492996301 -302326.429036598
 1181577.03513007 343316.653289984 -278493.835741393
 1133856.30429303 486510.204681686 -263110.495561277
 1074614.69417419 607454.525518466 -260291.546944980
 1013965.84689611 699819.864208099 -271431.114478373
 967901.660880890 754869.361966145 -291355.542503988
 400482.382374513 -1162700.71539656 -281585.402219155
 472545.993636384 -1131396.53423815 -296970.700795632
 581138.728787700 -1073155.87025165 -319630.547611458
 706207.628916804 -986812.274951611 -344995.289509125
 834269.309858980 -871245.587550477 -369425.602415694
 954880.039546332 -726869.748857048 -389119.402229496
 1059104.86403887 -556516.290494187 -400169.884302584
 1139249.02362667 -366238.574743078 -399412.567973016
 1189690.50426109 -165349.613789492 -385804.925071743
 1208142.62945918 35134.4036681249 -361533.389165239
 1196141.40227340 225121.407086787 -331836.599484825
 1158289.73431290 397242.668472057 -303500.551316621
 1101180.39886184 546669.866154215 -283025.118179227
 1033195.76448974 669573.638990100 -275185.546729777
 965683.363150758 761377.655687382 -281618.782173316
 915929.718718385 814945.834243808 -297465.071119412
 342444.555490767 -1188428.60739405 -248834.488086181
 405774.263541141 -1164381.76314077 -266667.935139901
 506433.339082061 -1116661.14398868 -296888.183481676
 628959.464709849 -1040888.96824841 -335424.475030693
 761762.413493583 -931883.395721769 -377969.301776546
 893946.905854501 -785563.838682430 -418685.819901560
 1013568.85219590 -601400.809178509 -450049.641147144
 1107874.81361055 -385414.170888592 -464347.655495960
 1166092.64371124 -151537.053892311 -456961.594118272
 1183385.48497003 81504.3438601293 -429540.762690949
 1162499.76588188 296806.408930110 -389935.482947550
 1111640.33554589 483969.633544391 -348681.214167441
 1041212.30564015 638815.727739993 -315183.805888717
 962381.472140810 760220.473664682 -295696.067643937
 888065.199003915 846970.474586458 -292456.233333947
 835937.939671139 895435.954486624 -301581.901562334
 265331.769210734 -1212247.93573957 -227163.873583826
 319264.018203863 -1195063.72061290 -247876.221679546
 408993.305059780 -1158488.30168148 -286668.383681213
 524739.071466116 -1095412.54487361 -340983.422367361
 658666.003931370 -996115.577220923 -406770.553262969
 801179.989986800 -850167.625210652 -476314.038851873
 937952.025300087 -650799.330831902 -536894.459035635
 1049706.69083473 -402204.251911853 -572622.942152850
 1117706.04608605 -124957.764758184 -571548.932715556
 1133094.91715358 149269.513742538 -534194.676037445
 1101122.45515629 392839.211912870 -474084.510665783
 1035935.11041902 592367.838500058 -409253.249016858
 953079.900927262 746833.986385091 -354156.928701934
 866386.738355899 860462.826116910 -317060.207832649
 789142.068013505 937247.124941277 -300619.450800564
 737387.505150816 978188.996911006 -301588.104023763
 174547.929804612 -1230227.77299343 -218224.832857080
 217887.233834290 -1218832.47992069 -241913.145863084
 293131.031904761 -1192358.94902737 -289661.467454255
 395951.606982984 -1142040.09982854 -361270.212209877
 523349.529076139 -1054162.61535421 -454308.135216963
 669228.080283881 -910937.487928901 -560246.464124752
 819162.404209279 -696263.740155684 -660105.438997018
 947725.922493442 -409613.547972562 -724970.170469266
 1026141.23018580 -80353.1528253586 -729470.340358501
 1040152.86437689 240005.330442839 -672330.938605781
 998830.769751992 509282.971703184 -578374.773869652
 923766.509272310 713502.889642150 -478663.236250819
 835306.222950972 859122.077229755 -394616.524279921
 748313.753411506 958479.282586147 -335996.164006797
 674568.419650793 1021590.02748230 -304730.526658393
 626929.105063991 1053666.04518087 -297148.436602840
 73691.2494876024 -1239987.42430744 -220341.140569142
 104798.937410767 -1232769.44479506 -246670.041991762
 161333.324401090 -1213994.97100657 -302881.494527823
 243379.296724750 -1174255.96472257 -391712.749547648
 352598.509951826 -1096957.59458825 -513719.531820497
 487945.019260776 -957129.856147262 -661333.144163421
 638488.478831699 -727211.654419456 -809348.567055416
 776484.230189075 -398943.784639654 -910749.980995895
 864351.647673894 -12720.3401108377 -918849.200375036
 881778.992356072 352788.702945912 -830394.707733741
 840904.328878504 639273.995611367 -689752.201248698
 768845.055016951 837479.692785750 -546858.735384579
 687880.477886130 966007.438441942 -430348.124123879
 611601.514719492 1046564.48605820 -349565.150770936
 549066.628538320 1094373.90597862 -304008.260179917
 509572.619458301 1117434.45224854 -288488.165000506
 -34919.4113707503 -1239851.04474636 -230433.184393721
 -17755.3410291374 -1234671.87810628 -258494.743074977
 15777.1691587339 -1219856.71279854 -321325.554683466
 68627.0215795823 -1185976.19391670 -424617.746085720
 145601.088871027 -1114703.15666119 -572526.528964467
 250561.721070862 -975308.122833378 -759962.051939565
 379597.443807079 -729295.067797503 -956861.492411687
 510732.748755600 -360079.422649618 -1095921.66674987
 605502.720289137 79042.9260034483 -1103933.01540004
 638361.281105058 479181.357680686 -976949.093943055
 618256.671986323 769576.160734807 -785532.081644044
 570260.246687137 951850.845754334 -600277.143829448
 514052.419606213 1058590.86903041 -454626.124217910
 460659.695835189 1119441.93222735 -355234.902456228
 416803.568702410 1152803.15637014 -298109.205994947
 389044.491993134 1167875.93752992 -276151.423511403
 -149493.045008054 -1228471.17368410 -245071.083239896
 -147529.144974637 -1222739.83531193 -273298.147530034
 -140181.487143524 -1206982.55371443 -339251.671492088
 -123116.559135538 -1171855.80187756 -450716.899385283
 -90462.5880180373 -1098114.60774559 -614418.635251072
 -35177.4182691410 -951738.286146343 -827348.907563244
 47580.3431759177 -687936.053397958 -1056422.98739542
 151046.147081502 -286710.614086825 -1219233.98744488
 249271.015526469 185893.231808002 -1222643.48773685
 313792.709032766 599429.820844793 -1064785.16920495
 339072.959714929 880302.392031319 -837643.514565145
 337308.720647470 1042547.81028347 -625193.027126236
 321743.794911303 1128988.68474758 -461968.517398051
 301243.561221955 1173535.63591507 -351590.470545895
 281695.908180869 1195659.29136817 -287394.685403313
 268221.697615149 1204748.70745086 -261126.604816313
 -268221.696944543 -1204748.70624490 -261126.611069004
 -281695.911010295 -1195659.28938002 -287394.690901372
 -301243.569618217 -1173535.63306273 -351590.472872459
 -321743.807318333 -1128988.67992677 -461968.520538426
 -337308.737540607 -1042547.80438401 -625193.027849636
 -339072.986241177 -880302.387181682 -837643.508924099
 -313792.745838395 -599429.825162004 -1064785.15592790
 -249271.061859403 -185893.250655832 -1222643.47542489
 -151046.196094833 286710.591560081 -1219233.98667012
 -47580.3865873450 687936.042235790 -1056422.99270894
 35177.3880702862 951738.284046326 -827348.911262994
 90462.5699123580 1098114.60916517 -614418.635379689
 123116.546998506 1171855.80409560 -450716.896933741
 140181.479824418 1206982.55544845 -339251.668347139
 147529.141713227 1222739.83712664 -273298.141171541
 149493.043676855 1228471.17568124 -245071.074040858
 -389044.493032936 -1167875.93587991 -276151.429024576
 -416803.573546718 -1152803.15327522 -298109.211190037
 -460659.705149308 -1119441.92753818 -355234.905154759
 -514052.432386413 -1058590.86150427 -454626.127291663
 -570260.260183349 -951850.837440272 -600277.144191603
 -618256.690634272 -769576.152718919 -785532.074820156
 -638361.306384382 -479181.358741847 -976949.076904470
 -605502.752637412 -79042.9442660260 -1103932.99634952
 -510732.791010975 360079.397204674 -1095921.65541786
 -379597.486403631 729295.048789383 -956861.490000664
 -250561.754582155 975308.112176963 -759962.054566854
 -145601.111388903 1114703.15157536 -572526.533139932
 -68627.0343576413 1185976.19260122 -424617.747694721
 -15777.1810267516 1219856.71266113 -321325.554622388
 17755.3324031459 1234671.87917079 -258494.738582992
 34919.4019747028 1239851.04656938 -230433.176008810
 -509572.624522327 -1117434.44790388 -288488.172884299
 -549066.635720374 -1094373.90032965 -304008.267543731
 -611601.523657022 -1046564.47954465 -349565.154634717
 -687880.490138140 -966007.429213794 -430348.125254453
 -768845.067046378 -837479.683334175 -546858.732946539
 -840904.341807106 -639273.988039632 -689752.192504536
 -881779.007482502 -352788.705506098 -830394.690583616
 -864351.669262463 12720.3222926139 -918849.180313570
 -776484.261026136 398943.756702844 -910749.966942338
 -638488.516147032 727211.627606135 -809348.561709818
 -487945.054873261 957129.835554460 -661333.147691219
 -352598.536742222 1096957.58217600 -513719.539936711
 -243379.316841987 1174255.95827454 -391712.756377955
 -161333.343359147 1213994.96666504 -302881.501831108
 -104798.952626249 1232769.44268349 -246670.046080248
 -73691.2652695663 1239987.42318139 -220341.141627931
 -626929.112159775 -1053666.03691199 -297148.450952880
 -674568.425239606 -1021590.02031169 -304730.538325714
 -748313.760919583 -958479.274593478 -335996.170085468
 -835306.231229093 -859122.068460582 -394616.525848595
 -923766.517592187 -713502.881664301 -478663.232086293
 -998830.776900887 -509282.968699862 -578374.764168336
 -1040152.87293589 -240005.336384274 -672330.923243341
 -1026141.24278537 80353.1340336375 -729470.324704725
 -947725.942995314 409613.519490642 -724970.159760446
 -819162.432850557 696263.709242745 -660105.436060668
 -669228.113114053 910937.461006734 -560246.468682636
 -523349.556266828 1054162.59718556 -454308.146052051
 -395951.628897284 1142040.08840371 -361270.224307761
 -293131.052538141 1192358.94048812 -289661.481724571
 -217887.254366582 1218832.47365586 -241913.158934131
 -174547.949409354 1230227.76828731 -218224.843706599
 -737387.509524219 -978188.987816698 -301588.122827753
 -789142.072771190 -937247.116270382 -300619.465344808
 -866386.744474999 -860462.816850425 -317060.216259936
 -953079.908428301 -746833.976862424 -354156.928596791
 -1035935.11843149 -592367.829241136 -409253.242136747
 -1101122.46118242 -392839.208798330 -474084.499250106
 -1133094.92152581 -149269.520290883 -534194.664933586
 -1117706.05204207 124957.746481573 -571548.925063923
 -1049706.70268524 402204.226623931 -572622.938190981
 -937952.045318063 650799.301380293 -536894.459764242
 -801180.013857459 850167.599264416 -476314.045011582
 -658666.027880169 996115.555507964 -406770.567655250
 -524739.093973680 1095412.52881875 -340983.439306883
 -408993.328866799 1158488.28814971 -286668.404400210
 -319264.040942472 1195063.70998629 -247876.243625401
 -265331.790300591 1212247.92716513 -227163.894707501
 -835937.946763361 -895435.941849465 -301581.919425172
 -888065.206364097 -846970.462591015 -292456.245723715
 -962381.478513906 -760220.462570159 -295696.075425352
 -1041212.31213187 -638815.716802872 -315183.806610654
 -1111640.34127277 -483969.624463121 -348681.208514215
 -1162499.76944935 -296806.404430709 -389935.475736775
 -1183385.48598382 -81504.3530980651 -429540.758145101
 -1166092.64588272 151537.036576776 -456961.594319165
 -1107874.81978436 385414.147823968 -464347.659909946
 -1013568.86418279 601400.783352554 -450049.648662332
 -893946.920325282 785563.816574619 -418685.830484643
 -761762.430284759 931883.375595463 -377969.317556884
 -628959.484050453 1040888.94974709 -335424.496178110
 -506433.362495541 1116661.12718895 -296888.206730258
 -405774.283192815 1164381.74954663 -266667.964594630
 -342444.574452944 1188428.59449159 -248834.523612475
 -915929.731161174 -814945.813950245 -297465.088403575
 -965683.373951443 -761377.637556713 -281618.794154919
 -1033195.77197074 -669573.624052812 -275185.554987024
 -1101180.40303934 -546669.855004665 -283025.123461243
 -1158289.73694435 -397242.658885389 -303500.553821571
 -1196141.40296587 -225121.403520342 -331836.599408245
 -1208142.62869523 -35134.4098438520 -361533.391117956
 -1189690.50453691 165349.598913290 -385804.930596894
 -1139249.02597530 366238.555750485 -399412.578689120
 -1059104.86906500 556516.271873087 -400169.896896596
 -954880.045849102 726869.732880191 -389119.416607357
 -834269.320135545 871245.569882690 -369425.620875593
 -706207.641365226 986812.258261999 -344995.311765493
 -581138.743853616 1073155.85386712 -319630.575230106
 -472546.009025663 1131396.51848466 -296970.736325410
 -400482.395153466 1162700.70063000 -281585.445017309
 -967901.674823488 -754869.334670704 -291355.566905201
 -1013965.85834332 -699819.841406423 -271431.130504486
 -1074614.70042143 -607454.509533371 -260291.558458376
 -1133856.30664413 -486510.194906195 -263110.503504923
 -1181577.03726988 -343316.641892069 -278493.840713644
 -1211087.02232138 -182801.486747872 -302326.432397919
 -1217782.81141033 -9643.80683373092 -329334.863235361
 -1198725.61196008 170662.633339771 -354232.414851355
 -1152840.62052451 351464.441745611 -372801.127648581
 -1081158.21116460 525554.776424536 -382672.876394029
 -986720.070678692 686212.910735368 -383464.175874205
 -874356.126838929 827914.113943673 -376309.731884578
 -750828.669180522 946509.023371133 -363216.752274155
 -625617.640454287 1039229.52208487 -346632.369086643
 -512463.911179421 1104715.34965110 -329445.241129540
 -432866.047006122 1142092.89277506 -315911.760687939
 450019.530230585 -1134592.47810652 -318954.169049579
 532187.283143497 -1095096.23606079 -330288.298831180
 647619.378054289 -1025560.26898988 -346936.171012676
 773132.905927704 -927991.956387449 -364205.806613421
 894646.457773542 -804869.731053112 -378605.153882904
 1003006.88331096 -659899.111711956 -387375.509436973
 1092175.78370415 -497842.874450189 -388399.228588758
 1158241.77892517 -324398.041586350 -380514.550426336
 1199040.50470326 -145976.091262691 -364063.565575529
 1214129.33138997 30907.8403218382 -341297.675034752
 1204725.17218375 200447.554560803 -316239.574209766
 1173475.99410605 357920.021002353 -293933.293012974
 1124408.65557836 499215.135432100 -279354.353348799
 1063577.46991309 619752.766533499 -276150.148988389
 1000794.56152838 713315.275064216 -284852.584496320
 952931.419770511 770633.509850343 -299324.462129063
 416355.962020281 -1155016.95074013 -290056.869100011
 489763.517465274 -1122102.23579081 -304249.404785367
 600096.444668469 -1060449.98072951 -326924.343520032
 725498.443974976 -969759.585267045 -353224.837025275
 851886.155266882 -849840.915261643 -378958.873930690
 968876.370180574 -702027.212644215 -399982.253270897
 1068077.42071918 -529916.771421235 -412247.825507064
 1142702.44083576 -339938.868764478 -412579.844551421
 1188131.62961581 -141193.354858649 -399946.369116160
 1202780.86329535 56048.2463761161 -376465.429870526
 1188325.88236090 242630.327109492 -347219.746841814
 1148992.95698829 411969.666466492 -318819.086037428
 1090719.78462211 559758.208329265 -297574.411804608
 1021209.31529429 682485.505910885 -287914.048800482
 951467.353023266 775727.549536783 -290699.287820787
 899748.758988589 831780.786299016 -300237.114896275
 357266.937904872 -1181763.12474379 -259510.467987003
 421204.875305738 -1156453.88746532 -277038.427125152
 523176.517067806 -1105829.92834599 -308181.655005719
 646111.801260354 -1025984.11721412 -348490.405055020
 777554.889493597 -912401.399558516 -393041.360199174
 906281.107391679 -761926.273963015 -435513.878480013
 1020621.89964180 -575109.839954032 -468112.209708914
 1108804.80749966 -358770.905921866 -483099.127352350
 1161437.54749427 -126796.935971593 -475956.711495559
 1174708.98654628 103033.914560053 -448321.581341790
 1151498.87467940 315012.843303572 -407880.719187386
 1099423.02164512 499559.807097648 -365045.818395747
 1028064.09121361 652886.440664886 -329200.472162512
 947864.014600133 774065.452208879 -306473.353559059
 871416.131640809 861997.818283602 -298568.447277059
 817380.542601853 912580.115369801 -301058.154725121
 279878.726314362 -1206897.30056270 -237941.663796131
 334133.977009364 -1188582.36343079 -259183.104519052
 424963.211900719 -1149357.82186412 -299887.140053944
 541174.201020730 -1082217.32673639 -357051.218706887
 673830.590268649 -977811.942823607 -425893.849460966
 812550.377000603 -826648.445624238 -497959.499459708
 942940.600085336 -623531.520162548 -560018.659504701
 1046943.95827590 -374169.675599030 -596200.329596234
 1108034.95159351 -99259.8202178202 -594941.564404821
 1119021.49369354 171109.737070640 -556831.918491063
 1085136.73746526 411072.418520807 -495022.381972428
 1019424.69652579 608014.647065195 -427365.075768304
 936297.092930511 760972.365393933 -368535.268048516
 848806.379235410 874148.940209304 -327018.029807501
 769919.079154021 951630.168465303 -305244.270937683
 716524.617506642 994164.083923782 -299632.571096506
 189652.375134801 -1226221.08792970 -227954.493356000
 233235.559048918 -1213728.98866332 -253007.009769312
 309524.035748291 -1184721.37235466 -303610.889296064
 412896.724788903 -1130196.40863562 -379106.585915745
 538989.606783139 -1036481.96952769 -476177.237531059
 680341.824257919 -886727.679153341 -585148.234302806
 821948.549381497 -667169.251779706 -686174.323746025
 939983.792610216 -380020.765040701 -750709.077264255
 1009411.00664029 -54837.6373084012 -754739.480964671
 1018741.75259462 260063.173965496 -697195.681273484
 976531.980338847 525332.404726772 -601631.603922559
 902273.714251655 727305.397321827 -498476.112282240
 814717.610807939 871737.028911692 -409706.233760938
 727916.764714348 970616.540445615 -345818.082205280
 653337.552688713 1034066.67862820 -308877.932712118
 604490.548504242 1067283.72765434 -295035.679829143
 90043.8396751243 -1237449.46454009 -228386.428154035
 121387.324734229 -1229152.22561278 -256903.395430976
 179020.273080292 -1207951.26017933 -316788.455876113
 261847.070369820 -1163885.62627550 -410311.822407043
 369926.182357871 -1080021.02068272 -536897.239151535
 500196.924453853 -932284.480321048 -687166.730450750
 640330.898736758 -696531.964845046 -834487.263528347
 764384.699582655 -369209.817081121 -933246.791011795
 840592.160689831 9331.74047928954 -940673.784542432
 853050.852127954 366954.202480002 -853931.079118795
 812591.749762228 649626.742405017 -713602.953111575
 742899.179781613 846928.837603866 -567769.128813573
 664174.950062558 975374.639553733 -446167.433979417
 589202.332143462 1055948.36664061 -359670.807412393
 526739.730075259 1104080.69074872 -308383.715515302
 486530.762666735 1128010.39652985 -287105.891995366
 -16870.3493001956 -1239093.93845497 -236455.141448865
 525.616247097232 -1232880.61164817 -267496.826277529
 35277.5677345634 -1215857.53650130 -334657.100726515
 89367.0890099975 -1177789.92094638 -443140.899080596
 165970.294070843 -1099645.92747041 -595635.901035795
 266527.351824193 -951506.638963685 -784313.532751136
 384767.106889317 -699502.185115417 -976831.816329575
 499811.744891196 -334149.352722920 -1109090.55566379
 580230.097478230 92199.6173655602 -1116414.66107222
 606758.465041545 482248.805658215 -995404.282420267
 587042.578171129 770549.566299005 -808197.876890037
 541958.509412421 954684.587341254 -621617.039412112
 488727.933429336 1063367.67078367 -471108.941474213
 437435.599377171 1125299.35362664 -365924.708162690
 394395.399418079 1159331.46782105 -303236.289973168
 366357.578929820 1175193.08252768 -276139.048413538
 -129601.680534630 -1229950.46986912 -248947.136939320
 -127457.819086432 -1223271.91848492 -280908.790746924
 -118794.851574330 -1205712.33284220 -351702.977796053
 -99886.3894856933 -1167027.46982394 -468635.279071902
 -66166.0650308995 -1087089.84883219 -636715.904719912
 -12781.6894077547 -932669.270391450 -849419.855785299
 62205.9084028591 -664413.561795336 -1070623.40474191
 151109.821317266 -270803.901488201 -1222857.51408706
 233240.625626043 184886.032194661 -1225954.89173780
 287722.081533839 588190.146718378 -1078331.01876010
 310246.244275194 870261.444834757 -859035.340638679
 309752.035003750 1037897.84882718 -646816.174140621
 296689.349534330 1128695.07460022 -479137.025667026
 278445.797265244 1175660.50271327 -363097.440454013
 260126.562703148 1199021.19693834 -293652.467361938
 246675.723277039 1208953.72427985 -262928.528339158
 -246675.722789171 -1208953.72320500 -262928.533739049
 -260126.565889778 -1199021.19501068 -293652.472409991
 -278445.807927960 -1175660.49888097 -363097.444685649
 -296689.364241886 -1128695.06950396 -479137.028565053
 -309752.052522294 -1037897.84433971 -646816.172951915
 -310246.270014739 -870261.442094845 -859035.334118391
 -287722.118547533 -588190.152549830 -1078331.00570320
 -233240.670630926 -184886.049384201 -1225954.88058317
 -151109.869491158 270803.881346295 -1222857.51259462
 -62205.9501416858 664413.551313124 -1070623.40882189
 12781.6576789681 932669.267703073 -849419.859214597
 66166.0438590285 1087089.84989731 -636715.905101516
 99886.3757748135 1167027.47188507 -468635.276861503
 118794.840876385 1205712.33477881 -351702.974770374
 127457.814451726 1223271.92007252 -280908.785936341
 129601.678677985 1229950.47191671 -248947.127789565
 -366357.580703215 -1175193.08047980 -276139.054776109
 -394395.403806009 -1159331.46489627 -303236.295448138
 -437435.609595103 -1125299.34767655 -365924.714245768
 -488727.946920358 -1063367.66333976 -471108.944280729
 -541958.524754334 -954684.579192083 -621617.038551787
 -587042.598907116 -770549.559297994 -808197.868503128
 -606758.492734448 -482248.807652857 -995404.264573430
 -580230.132987826 -92199.6363020062 -1116414.64105307
 -499811.785038148 334149.329916857 -1109090.54444263
 -384767.148009963 699502.167300557 -976831.812889535
 -266527.384431804 951506.629178534 -784313.533541401
 -165970.316693336 1099645.92230765 -595635.904263520
 -89367.1046792712 1177789.91948039 -443140.899816956
 -35277.5804698806 1215857.53652127 -334657.099311468
 -525.627277557907 1232880.61210298 -267496.824159638
 16870.3401572286 1239093.94007578 -236455.133607665
 -486530.768016700 -1128010.39182122 -287105.901429040
 -526739.737165128 -1104080.68486350 -308383.724475699
 -589202.342514416 -1055948.35881604 -359670.813394955
 -664174.962111337 -975374.629316532 -446167.438423060
 -742899.192172275 -846928.828939827 -567769.125524934
 -812591.764297300 -649626.735215120 -713602.943105547
 -853050.871331944 -366954.204456061 -853931.059085441
 -840592.184472508 -9331.75621553656 -940673.763133970
 -764384.732174872 369209.790683976 -933246.774760030
 -640330.935253519 696531.939878212 -834487.256347155
 -500196.959335500 932284.460860642 -687166.731462064
 -369926.208916470 1080021.00887443 -536897.244605994
 -261847.091199005 1163885.61941458 -410311.828576162
 -179020.291624042 1207951.25572532 -316788.462380532
 -121387.342166701 1229152.22316551 -256903.398903057
 -90043.8534592399 1237449.46362910 -228386.427655452
 -604490.556400783 -1067283.71964024 -295035.692640947
 -653337.560522143 -1034066.67059695 -308877.943030028
 -727916.773880316 -970616.530685932 -345818.090304471
 -814717.620292945 -871737.019010540 -409706.235966420
 -902273.723706324 -727305.388751199 -498476.107673723
 -976531.990400180 -525332.400386555 -601631.591381401
 -1018741.76354952 -260063.178042964 -697195.663745231
 -1009411.02235309 54837.6193797598 -754739.461252557
 -939983.813740231 380020.739561047 -750709.063704974
 -821948.577181031 667169.223787435 -686174.317662723
 -680341.853005053 886727.655298192 -585148.237028852
 -538989.634101322 1036481.95136302 -476177.246147874
 -412896.746370880 1130196.39719491 -379106.596517301
 -309524.056015362 1184721.36380824 -303610.901983263
 -233235.578293939 1213728.98224295 -253007.022828094
 -189652.393261801 1226221.08309178 -227954.504299081
 -716524.625903398 -994164.073471486 -299632.585697104
 -769919.086930534 -951630.158065485 -305244.283745440
 -848806.387580664 -874148.929150608 -327018.037707499
 -936297.101560117 -760972.353889043 -368535.269880166
 -1019424.70484451 -608014.638085544 -427365.068700452
 -1085136.74383417 -411072.415018787 -495022.370919296
 -1119021.50020021 -171109.743135380 -556831.903551486
 -1108034.95974489 99259.8057769767 -594941.551632775
 -1046943.97137682 374169.651950057 -596200.321432539
 -942940.618402414 623531.493943897 -560018.657855182
 -812550.399382370 826648.420473690 -497959.504689747
 -673830.610974901 977811.922257212 -425893.863918937
 -541174.220988888 1082217.31037155 -357051.238043201
 -424963.233078527 1149357.80853779 -299887.161118338
 -334133.998455030 1188582.35267868 -259183.126179562
 -279878.745829606 1206897.29190485 -237941.684756045
 -817380.554111161 -912580.100681272 -301058.168001542
 -871416.141062842 -861997.804537038 -298568.459465201
 -947864.023297667 -774065.438437522 -306473.361441808
 -1028064.09936762 -652886.427610874 -329200.472587613
 -1099423.02813435 -499559.796750941 -365045.813011190
 -1151498.88000515 -315012.837492343 -407880.708640237
 -1174708.98916833 -103033.919626762 -448321.573306957
 -1161437.55067595 126796.921226523 -475956.707659726
 -1108804.81376182 358770.884900933 -483099.128590576
 -1020621.91042427 575109.815672374 -468112.216031743
 -906281.120584820 761926.251821512 -435513.889762081
 -777554.905380427 912401.378237872 -393041.378263690
 -646111.817973626 1025984.09931943 -348490.426751532
 -523176.535817383 1105829.91229664 -308181.680764899
 -421204.892909099 1156453.87371053 -277038.457778514
 -357266.955093675 1181763.11190292 -259510.502798210
 -899748.772140989 -831780.766891817 -300237.129247194
 -951467.365609184 -775727.529686195 -290699.299597754
 -1021209.32543634 -682485.487693694 -287914.056010303
 -1090719.79099658 -559758.194145823 -297574.415119880
 -1148992.96089035 -411969.657095365 -318819.084083916
 -1188325.88476055 -242630.321671007 -347219.742429540
 -1202780.86349226 -56048.2517027216 -376465.428448410
 -1188131.63061959 141193.341869126 -399946.370719890
 -1142702.44326378 339938.852298338 -412579.851393678
 -1068077.42494105 529916.754670915 -412247.836100199
 -968876.376297403 702027.195078931 -399982.269283745
 -851886.164114654 849840.897162442 -378958.894629894
 -725498.454326420 969759.567830845 -353224.863634289
 -600096.455903103 1060449.96539741 -326924.372630907
 -489763.527757051 1122102.22104939 -304249.442586090
 -416355.974434770 1155016.93484915 -290056.914558329
 -952931.435212046 -770633.483767552 -299324.480121407
 -1000794.57380480 -713315.252709323 -284852.597344743
 -1063577.47883429 -619752.747789031 -276150.156696297
 -1124408.66099724 -499215.121070006 -279354.357203185
 -1173475.99813453 -357920.007638890 -293933.293202575
 -1204725.17316252 -200447.549421071 -316239.573738928
 -1214129.33133466 -30907.8425652085 -341297.675028378
 -1199040.50477893 145976.079033439 -364063.570229800
 -1158241.78004604 324398.027916713 -380514.558668227
 -1092175.78487781 497842.861986635 -388399.241263987
 -1003006.88545758 659899.098228724 -387375.526847727
 -894646.460781195 804869.717554295 -378605.175472687
 -773132.911857188 927991.940665401 -364205.834085950
 -647619.384703759 1025560.25290878 -346936.206136745
 -532187.291672929 1095096.21941251 -330288.340286521
 -450019.539209297 1134592.46066004 -318954.218442408
 479376.408578323 -1121368.71697734 -322923.970002365
 562685.869971537 -1078864.38360056 -333145.140218949
 678805.618680787 -1004290.13019957 -349533.542524995
 802995.278704943 -900866.331865703 -367679.024976077
 920683.496618120 -772407.563782819 -383768.009851103
 1023103.82474351 -623699.688873391 -394723.565059637
 1105106.49784915 -460109.963406314 -398230.939160657
 1163835.30769021 -287376.383412344 -393003.335544918
 1198045.11326296 -111420.626529481 -379239.741442618
 1207825.31493764 62086.2714227413 -358960.630732070
 1194421.88905174 228258.093454748 -335863.104025192
 1160081.07094732 383122.393469503 -314608.600281169
 1108214.54974255 523029.433619647 -299750.153003110
 1044366.47390988 643532.870234352 -294471.635340213
 978396.486597935 738158.299767714 -299018.511827964
 928215.295049259 796772.692907545 -308413.801235337
 443910.766317849 -1142482.22045925 -298708.952662196
 518279.498058230 -1106836.88925510 -312806.479145757
 629409.090943039 -1040398.91895262 -336100.753643069
 753885.839323947 -943821.499190082 -363877.108173031
 876860.699979633 -818127.608467665 -391576.250573450
 988036.525278757 -665860.627483520 -414684.073001710
 1079787.31967736 -491538.157440253 -428951.063599548
 1146518.62050060 -301921.618402229 -431147.097990622
 1184825.21698478 -105688.925310554 -420200.532106550
 1193889.94861533 87897.1614356165 -398058.174800878