# OOMMF OVF 2.0
#
# Segment count: 1
#
# Begin: Segment
# Begin: Header
#
# Title: Oxs_MinDriver::Magnetization
# Desc: Oxs vector field output
# Desc:  MIF source file: C:/Users/grl31/Documents/GitHub/phd-work/multi-axis-tomo/stdprob3/drive-1/stdprob3.mif
# Desc:  Iteration: 4376, State id: 9421
# Desc:  Stage: 0, Stage iteration: 4376
# Desc:  Stage simulation time: -1 s
# Desc:  Total simulation time: -2 s
# meshunit: m
# meshtype: rectangular
# xbase: 1.5624999999999999e-09
# ybase: 1.5624999999999999e-09
# zbase: 1.5624999999999999e-09
# xnodes: 32
# ynodes: 32
# znodes: 32
# xstepsize: 3.1249999999999999e-09
# ystepsize: 3.1249999999999999e-09
# zstepsize: 3.1249999999999999e-09
# xmin: 0
# ymin: 0
# zmin: 0
# xmax: 9.9999999999999995e-08
# ymax: 9.9999999999999995e-08
# zmax: 9.9999999999999995e-08
# valuedim: 3
# valuelabels: Magnetization_x Magnetization_y Magnetization_z
# valueunits: A/m A/m A/m
#
# End: Header
#
# Begin: Data Text
 -304754.831506130 -971771.442671921 744536.222624499
 -307945.994850413 -967294.330017758 749039.634658967
 -312021.942732170 -959611.137673710 757190.994812514
 -316516.510795645 -949250.574275625 768303.375334314
 -321235.644648627 -936585.800067015 781769.870639030
 -326061.901978179 -921931.443081374 797041.706095247
 -330899.037379208 -905571.448399870 813631.126385557
 -335652.764589093 -887768.018762227 831116.476437354
 -340225.660139500 -868763.250299080 849144.478891180
 -344518.289821991 -848777.724494409 867428.932708136
 -348432.959263724 -828008.170855214 885746.223708958
 -351878.284239688 -806625.400261638 903928.408477264
 -354773.664609745 -784773.247771899 921854.667179090
 -357053.231769127 -762568.907414981 939441.899239170
 -358669.043972106 -740104.841588634 956635.129645651
 -359593.496369439 -717452.275340200 973398.264276718
 -359820.905581640 -694666.220973355 989705.606866992
 -359368.309475928 -671791.873108810 1005534.44908085
 -358275.472912244 -648872.188473159 1020858.95179232
 -356604.059710860 -625956.463754374 1035645.44174191
 -354435.960123349 -603109.672910294 1049849.18132674
 -351870.660650918 -580422.311020954 1063412.62450713
 -349021.636127747 -558020.451609854 1076265.07144792
 -346011.669518999 -536075.690544203 1088323.57756468
 -342967.090081063 -514814.577169130 1099494.86455120
 -340010.976400120 -494527.060574696 1109677.86010434
 -337255.512772984 -475573.350746629 1118766.34650977
 -334793.787296229 -458388.365686353 1126651.08046378
 -332691.489452155 -443482.360739880 1133220.71966482
 -330978.658830655 -431434.881219278 1138361.32294844
 -329640.266144067 -422874.450088065 1141956.18362446
 -328618.388631191 -418417.468111774 1143890.81994364
 -295086.664180127 -986145.574554721 729376.581285784
 -299863.012024885 -981821.711680217 733251.478969969
 -305378.088927264 -974292.682578829 740977.342700460
 -310995.881372752 -964179.239850594 751790.786142841
 -316604.089182385 -951862.621170065 765028.647863072
 -322162.276875199 -937645.263702382 780116.823132300
 -327624.638539753 -921796.339619920 796556.988170945
 -332928.301259826 -904564.151097541 813923.751765720
 -337995.563992027 -886178.212999373 831863.332793255
 -342739.653272578 -866847.773552655 850090.523697537
 -347071.198667434 -846759.367480552 868383.318332659
 -350904.393147521 -826074.638254214 886575.563514973
 -354162.405008885 -804929.148864323 904548.222653626
 -356781.878607904 -783432.563333756 922219.898247846
 -358716.471547215 -761670.356459277 939537.222280665
 -359939.472622467 -739707.094100153 956465.588458425
 -360445.544664080 -717591.231247033 972980.608793482
 -360251.656988916 -695361.293791928 989060.587452412
 -359397.237748473 -673053.281734988 1004680.21597097
 -357943.535847074 -650709.120030392 1019805.61734750
 -355972.192411775 -628385.948401363 1034390.80090661
 -353582.964039606 -606165.995657396 1048375.55492705
 -350890.570035666 -584166.763178754 1061684.71382810
 -348020.657863851 -562551.171216732 1074228.66857185
 -345104.936632038 -541537.241744826 1085904.88968167
 -342275.696229334 -521406.792674791 1096600.07990254
 -339660.206076088 -502512.434478691 1106192.40122214
 -337375.917803468 -485281.816139622 1114553.04042897
 -335528.109431079 -470217.218594737 1121546.29241846
 -334211.459977332 -457886.246680428 1127028.09017330
 -333507.323450489 -448893.834660375 1130847.74453847
 -333391.479546552 -443836.877042410 1132876.15336450
 -284251.911011311 -1008639.30734957 702422.258812143
 -289948.717650856 -1004697.64561201 705734.945254425
 -296816.085022709 -997607.506739223 712901.749954576
 -303798.362227163 -987996.194608774 723270.008686679
 -310651.709019301 -976271.721062996 736164.705249468
 -317320.282796278 -962743.731036748 750987.201884616
 -323774.211503045 -947676.307850000 767221.810446188
 -329970.404744961 -931307.221793967 784433.439844199
 -335847.822311988 -913853.462935614 802263.996105917
 -341332.397569076 -895511.370130119 820427.334537542
 -346344.172526329 -876454.899434523 838702.542224134
 -350804.267080786 -856833.749343771 856925.739549445
 -354640.930372008 -836772.231408941 874980.842171263
 -357794.478569115 -816369.355633868 892789.794524082
 -360221.127380045 -795700.341631616 910302.771958502
 -361895.813092137 -774819.631460986 927488.754696248
 -362814.113721306 -753765.381627831 944326.796857437
 -362993.362453333 -732565.339968734 960798.247505828
 -362473.034486494 -711243.970663888 976880.107476538
 -361314.424729362 -689830.695694844 992539.635822475
 -359599.647278058 -668369.061779223 1007730.28229423
 -357429.942680654 -646926.607683865 1022388.98236674
 -354923.282805848 -625605.155060934 1036434.79495936
 -352211.335634128 -604551.178214259 1049768.77401146
 -349435.883425504 -583965.760861499 1062274.91000919
 -346745.006910639 -564113.539900362 1073821.79396890
 -344289.566816095 -545329.745804984 1084264.54034097
 -342220.732433345 -528024.094489063 1093446.36670060
 -340688.733107536 -512679.541624742 1101199.48494902
 -339837.689360370 -499843.692699729 1107346.40410192
 -339762.227632924 -490118.796061501 1111707.97664679
 -340264.518091546 -484244.497136173 1114126.00527957
 -275149.371191486 -1035982.07759853 665269.411100879
 -281276.213048995 -1032435.52702952 668214.041620684
 -289066.187315524 -1025906.08807186 674912.489680632
 -297210.539892949 -1016953.14246625 684851.540060705
 -305283.223658830 -1005980.53308069 697391.390349870
 -313139.623482139 -993301.511046366 711930.555094683
 -320714.651006807 -979178.661332956 727942.781225789
 -327954.626812870 -963843.075470090 744984.375365916
 -334798.003995136 -947501.891216710 762692.528861129
 -341173.867416779 -930340.054954167 780779.869911301
 -347006.418947589 -912519.610008147 799026.869059297
 -352220.895302007 -894178.367780745 817272.854329917
 -356749.213175462 -875428.997709543 835406.188501681
 -360534.747272580 -856359.103557426 853354.095720160
 -363536.108036798 -837032.572244690 871072.558443812
 -365729.965743533 -817492.311591517 888536.630401328
 -367113.030637130 -797764.399699918 905731.426100919
 -367703.310889021 -777863.588410167 922643.996298607
 -367540.732382077 -757800.074013406 939256.242345121
 -366687.182895133 -737587.428431014 955538.971596610
 -365226.021602695 -717251.544339053 971447.171083670
 -363261.064055392 -696840.405267502 986916.551612608
 -360915.060802268 -676434.415015511 1001861.38361935
 -358327.700346361 -656156.954912522 1016173.57798920
 -355653.218471908 -636184.666149526 1029722.91887951
 -353057.781209661 -616756.825716216 1042358.21672721
 -350716.759681299 -598182.993636857 1053909.05277507
 -348811.551702785 -580848.034007144 1064187.71544671
 -347523.229814207 -565214.238084051 1072991.10002158
 -347010.964613417 -551824.611046059 1080102.96731417
 -347329.107275722 -541334.144500980 1085296.85623584
 -348126.314955813 -534718.925480324 1088316.66829439
 -269037.054331685 -1065689.30394232 619253.422904078
 -275297.066348902 -1062473.26257908 622022.123789192
 -283614.832202622 -1056496.95187295 628431.578261949
 -292594.865078404 -1048243.97607514 638061.315604456
 -301673.468353566 -1038089.74430231 650317.024369535
 -310601.702772857 -1026337.48047157 664610.705099482
 -319250.063398583 -1013243.44671829 680416.450140202
 -327528.643172101 -999031.452903113 697288.014332020
 -335356.723856201 -983899.740600453 714861.244669027
 -342653.939712360 -968023.211307429 732849.760106807
 -349340.454960606 -951553.287802115 751037.294626476
 -355340.423887070 -934616.979992107 769268.298307648
 -360586.209972502 -917316.153809560 787437.673760060
 -365022.321187320 -899727.594086977 805480.224706004
 -368608.672543882 -881904.180900283 823360.245065907
 -371323.116418970 -863877.337071421 841061.543899284
 -373163.295764582 -845660.794371231 858578.130676812
 -374147.924038667 -827255.664223390 875905.718594660
 -374317.584787189 -808656.765614433 893034.160636671
 -373735.106022779 -789860.142998815 909940.907942371
 -372485.571960117 -770871.675651215 926585.554214605
 -370675.978201696 -751716.631232800 942905.539506042
 -368434.512469893 -732449.958223857 958813.068140968
 -365909.456929928 -713167.016647144 974193.259376604
 -363267.632765634 -694014.333639215 988903.515317406
 -360692.253316792 -675199.864179834 1002773.98885678
 -358379.698262362 -657002.290700192 1015608.88771566
 -356533.624049723 -639779.391404386 1027188.16979907
 -355351.590864502 -623977.666887606 1037268.79303993
 -354989.589335284 -610153.301110134 1045583.45985719
 -355460.255744659 -599043.688426372 1051828.92946592
 -356333.785076920 -591857.542014698 1055594.76812460
 -266415.524115592 -1095788.13187278 565526.807035648
 -272621.815604216 -1092825.25486063 568295.467969265
 -281164.120979700 -1087339.48739486 574620.750708288
 -290661.940498479 -1079757.53837263 584113.623871327
 -300472.910839583 -1070419.38159212 596211.211134519
 -310260.329376656 -1059608.18532640 610342.897495609
 -319824.724554331 -1047567.29150587 625990.691823573
 -329027.243229499 -1034510.12394444 642712.461049418
 -337755.178837844 -1020625.19713679 660147.769106778
 -345908.230857471 -1006077.78107428 678015.062644376
 -353394.704726042 -991009.701319385 696104.435757604
 -360132.137152862 -975538.442746927 714268.171929540
 -366049.564953845 -959756.411084807 732410.252725660
 -371090.136436924 -943730.883314841 750475.556854431
 -375213.484954507 -927504.953482046 768439.218737251
 -378397.686264742 -911099.645746592 786296.418323826
 -380640.786464009 -894517.252079356 804052.801954830
 -381961.967708703 -877745.904632656 821715.652183680
 -382402.417745348 -860765.379844210 839285.876613636
 -382025.969582460 -843554.100701640 856750.879003332
 -380919.532836958 -826097.289821068 874078.376447166
 -379193.329384529 -808396.201102671 891211.216217570
 -376980.847425789 -790478.282329207 908063.299973606
 -374438.410374098 -772408.097093015 924516.651716246
 -371744.104762293 -754298.714718051 940419.693790028
 -369095.588292945 -736323.326620171 955586.645101659
 -366705.742680548 -718727.126026209 969797.735364528
 -364793.811938649 -701840.496461684 982799.482710812
 -363566.452771940 -686097.721094514 994303.164254594
 -363174.749512627 -672074.735472171 1003976.63427761
 -363609.071785554 -660589.635373939 1011414.45880051
 -364421.992328150 -653036.988200636 1016016.10935476
 -267352.029444624 -1124706.14414301 505082.579978525
 -273379.467475725 -1121934.28791812 508012.353467231
 -281920.486987716 -1116871.51449332 514459.220977674
 -291664.402075438 -1109908.12037120 524008.847077027
 -301936.460702638 -1101350.92194619 536106.287358771
 -312337.345196897 -1091458.88807200 550192.974657924
 -322605.602996367 -1080457.91227323 565761.217865350
 -332551.846628543 -1068548.06308166 582377.658489176
 -342025.945903835 -1055906.82164055 599690.309460213
 -350901.511705929 -1042689.77825202 617426.583757286
 -359069.512844997 -1029029.92924156 635386.434061451
 -366436.488901435 -1015036.49914920 653432.962066871
 -372924.863337401 -1000793.98469549 671481.851892564
 -378474.064912961 -986361.856346331 689490.465091601
 -383041.812127460 -971775.203450101 707447.068720042
 -386605.314504551 -957046.454799764 725360.493183213
 -389162.323282398 -942168.237472501 743250.381334824
 -390732.055972407 -927117.402495627 761138.103989211
 -391356.037197763 -911860.231984570 779038.381848329
 -391098.897894707 -896358.836500349 796951.641702456
 -390049.137602871 -880578.754938991 814857.139334440
 -388319.812122070 -864497.746155895 832706.912018756
 -386049.016646596 -848115.749148727 850420.639278612
 -383399.931476983 -831465.953052815 867881.496735800
 -380560.013510958 -814626.903231075 884933.057110900
 -377738.579181434 -797735.706763975 901377.134650489
 -375161.408138432 -781002.856464759 916972.129868967
 -373059.696530235 -764730.505416282 931430.699424000
 -371647.978370629 -749339.526067547 944413.831836892
 -371078.752840952 -735420.085093344 955514.148796477
 -371341.260774635 -723849.823273876 964207.722594897
 -372008.943324077 -716149.128995097 969685.104580565
 -271638.597099650 -1151189.58290520 438776.079219508
 -277398.853118545 -1148574.22548913 442014.203108343
 -285769.049081149 -1143889.59469780 448778.427120017
 -295536.472545713 -1137502.09740654 458581.075394431
 -306024.915244619 -1129689.32967797 470850.507677572
 -316795.406162482 -1120685.36944110 485030.312737226
 -327537.345029391 -1110696.61558932 500621.360559526
 -338015.845694078 -1099908.07964284 517201.058888197
 -348043.729428773 -1088485.40524501 534429.149553873
 -357466.668776308 -1076574.59488272 552045.426831915
 -366155.705766353 -1064300.62149391 569862.805543029
 -374003.817846029 -1051765.77222964 587757.888523615
 -380924.605342907 -1039048.31294756 605660.366314433
 -386852.009267676 -1026201.84374326 623542.083377260
 -391740.487181838 -1013255.56934815 641406.246310756
 -395565.390183791 -1000215.58478445 659277.056298792
 -398323.458241728 -987067.225798120 677189.888649046
 -400033.419332873 -973778.508470736 695182.070235066
 -400736.718961385 -960304.694262139 713284.240098656
 -400498.390843628 -946594.021796242 731512.288174459
 -399408.049951235 -932594.663534711 749859.876310024
 -397580.929004854 -918262.989898834 768291.557413360
 -395158.760918988 -903573.212009732 786736.572892311
 -392310.195003374 -888528.503441391 805083.374805101
 -389230.185919490 -873173.735560522 823174.902930912
 -386137.446414209 -857610.163619960 840804.442573547
 -383268.427179350 -842012.964838976 857711.437891264
 -380865.184345448 -826653.899200881 873575.682587629
 -379152.214647811 -811934.799958856 888006.142806674
 -378291.622414159 -798446.551293338 900515.399123187
 -378288.015456483 -787096.277608696 910454.314095706
 -378757.797413926 -779468.384680514 916799.323243999
 -278883.154380566 -1174234.66302044 367350.749669810
 -284311.556366274 -1171773.82264285 371028.945507619
 -292381.515814547 -1167458.68622988 378289.169915480
 -301992.224644383 -1161633.95956049 388531.428804822
 -312485.358827363 -1154549.56564427 401145.399958817
 -323400.129094679 -1146414.78353344 415565.796855904
 -334389.775986881 -1137415.93672341 431297.919681984
 -345181.784493746 -1127722.47965828 447929.654573173
 -355555.845980652 -1117488.18425965 465133.990746757
 -365331.057380364 -1106849.99394292 482665.246667767
 -374358.460513990 -1095925.90353048 500351.464404221
 -382516.717652775 -1084812.72755815 518084.682038513
 -389709.611321706 -1073584.30265304 535810.222802274
 -395864.598122187 -1062290.43145450 553515.754168499
 -400931.978466951 -1050956.73959432 571220.545028631
 -404884.490224459 -1039585.50514412 588965.158552596
 -407717.231947322 -1028157.49119537 606801.666931627
 -409447.911355950 -1016634.78888473 624784.398680453
 -410117.411129003 -1004964.72231476 642961.155055743
 -409790.668767441 -993084.877612144 661364.849812990
 -408557.822006168 -980929.362991199 680005.530726193
 -406535.510949605 -968436.454713158 698862.749356772
 -403868.086391519 -955557.798380880 717878.327898880
 -400728.351425341 -942269.412751539 736949.505105847
 -397317.196259563 -928584.801728642 755922.444748118
 -393861.139685921 -914570.738646935 774585.823246889
 -390606.212024830 -900366.850958466 792663.706587922
 -387805.664507607 -886211.443224662 809805.825733817
 -385697.068700481 -872479.184459816 825570.878119586
 -384459.308373395 -859744.588347415 839392.467163804
 -384123.621330028 -848911.849230609 850498.175595413
 -384361.537490292 -841570.124080430 857656.904404262
 -288569.045184504 -1193031.08302489 291468.989802875
 -293617.605278257 -1190755.91359018 295699.994994316
 -301287.437884594 -1186842.68088858 303611.201231272
 -310596.011337869 -1181606.66643078 314460.227224833
 -320914.650949170 -1175267.78769500 327580.287764114
 -331773.761644217 -1168009.72352782 342387.043779201
 -342801.727958488 -1159998.47996547 358385.173668550
 -353696.831881652 -1151388.10047705 375171.193078163
 -364211.213123575 -1142321.03043559 392431.250767036
 -374140.694049429 -1132926.09418821 409934.918106059
 -383318.020485083 -1123315.60888899 427526.337103000
 -391608.207912574 -1113582.53468131 445113.896510994
 -398905.281757189 -1103798.16810706 462659.281965318
 -405129.940872034 -1094010.64797122 480166.496179791
 -410227.903561046 -1084244.38552443 497671.187148322
 -414168.809855433 -1074500.44308459 515230.458797726
 -416945.631805532 -1064757.85585502 532913.200654916
 -418574.575026203 -1054975.89637679 550790.898730708
 -419095.474104330 -1045097.32727806 568928.810151569
 -418572.640559656 -1035052.72014056 587377.427233539
 -417096.120216803 -1024765.99094906 606164.104193934
 -414783.200648020 -1014161.35098077 625284.800355800
 -411779.910501268 -1003171.94261101 644695.889380861
 -408262.093952021 -991750.503254231 664305.978338178
 -404435.382528359 -979882.508224524 683967.632533666
 -400533.066461354 -967602.501339516 703468.615498609
 -396810.326169587 -955014.845788970 722521.723055306
 -393532.450349862 -942321.320731342 740751.085004758
 -390952.935809548 -929860.855064435 757670.128169038
 -389272.746077312 -918174.275473827 772639.734894922
 -388556.927923842 -908131.840446206 784773.537429191
 -388538.964270363 -901272.845956334 792650.087557201
 -300098.870652603 -1206919.00083873 211746.603671515
 -304732.718883998 -1204891.42646248 216619.600677602
 -311925.647943956 -1201452.80418656 225306.414435885
 -320815.585297190 -1196872.84686600 236901.202158721
 -330810.636494561 -1191335.14462005 250667.761976179
 -341441.755197447 -1184995.32472462 265994.434354218
 -352321.751021203 -1177998.37810142 282380.303609727
 -363127.580748094 -1170483.14586886 299427.781369611
 -373589.834183771 -1162581.50370153 316834.837043833
 -383485.260825804 -1154415.29923378 334385.709239035
 -392631.018003554 -1146092.61352604 351940.386772374
 -400880.065827031 -1137704.23995175 369423.423915276
 -408117.475042825 -1129320.83913575 386812.615845634
 -414257.468927553 -1120990.99398149 404127.915107446
 -419241.141065016 -1112740.21525090 421420.822837254
 -423034.798576571 -1104570.88675546 438764.340215218
 -425628.946665513 -1096463.10228402 456243.461332940
 -427037.887729846 -1088376.38799710 473946.106021098
 -427299.959927915 -1080252.32810601 491954.350307114
 -426478.350060594 -1072018.20027090 510335.797428008
 -424662.434166041 -1063591.77157413 529134.946272629
 -421969.466454303 -1054887.51583014 548364.412817731
 -418546.359805778 -1045824.55633121 567995.926910502
 -414571.105718605 -1036336.77676100 587950.945534429
 -410253.191968629 -1026385.61566176 608090.714746693
 -405831.990792692 -1015976.35042410 628205.286150258
 -401571.660918553 -1005179.09837530 648000.472419192
 -397750.283107471 -994156.849138784 667080.431820125
 -394639.339220369 -983205.323793463 684920.808650793
 -392465.338255812 -972816.294242590 700820.124456210
 -391331.567424013 -963798.702082510 713793.455504103
 -391037.888302540 -957593.625399844 722255.667630534
 -312830.811184677 -1215360.06602317 128787.516509390
 -317026.499722613 -1213668.06465418 134363.158012742
 -323685.223193426 -1210812.25875751 143913.103113373
 -332064.994364348 -1206994.19251699 156356.290781749
 -341615.059220910 -1202351.39090709 170879.241033672
 -351873.760747944 -1197007.17138181 186837.145869288
 -362445.836100907 -1191083.92938924 203719.218442317
 -372993.846723966 -1184705.12701864 221130.692670088
 -383232.575505854 -1177992.67709513 238779.137908550
 -392924.077653099 -1171062.53030183 256461.790999157
 -401873.020076346 -1164019.92899072 274053.118147020
 -409922.348947011 -1156955.12428529 291492.605639874
 -416949.397965637 -1149939.95522624 308772.942191036
 -422862.540524287 -1143025.43234001 325928.770997936
 -427598.458659894 -1136240.32467504 343026.112202852
 -431120.079735956 -1129590.68749670 360152.448954818
 -433415.221993537 -1123060.25356228 377407.396763585
 -434495.969280741 -1116611.64860263 394893.795599085
 -434398.778316410 -1110188.44170558 412709.045478169
 -433185.271635477 -1103718.12897231 430936.472272791
 -430943.652949583 -1097116.21698690 449636.525791416
 -427790.571988060 -1090291.67412222 468837.629437793
 -423873.172167850 -1083154.10696517 488526.504296130
 -419370.896933435 -1075623.11376425 508637.787487614
 -414496.399919988 -1067640.40906540 529042.646960508
 -409494.595262329 -1059185.49977091 549535.880944046
 -404638.421961097 -1050296.12412274 569820.348921071
 -400219.121359461 -1041095.52620698 589486.379086928
 -396527.298498398 -1031830.80420444 607980.858217867
 -393816.979754935 -1022932.53041812 624553.164741035
 -392232.453305108 -1015125.91559671 638139.881982897
 -391643.727322135 -1009713.22062201 647026.918968065
 -326111.614636872 -1217921.65465467 43214.4517621662
 -329856.311199885 -1216672.51061708 49520.1654811228
 -335940.953058118 -1214535.22965532 59977.3532547890
 -343741.468953997 -1211616.39295889 73327.6874965713
 -352750.925499355 -1207995.22643764 88677.7784012007
 -362520.241539934 -1203756.87398779 105346.541091397
 -372652.173407677 -1198998.52422510 122810.127756303
 -382800.826512281 -1193827.41751757 140673.577205522
 -392670.332534213 -1188355.67107674 158651.315425284
 -402012.172533278 -1182694.11035671 176551.084339845
 -410621.594122034 -1176946.28959303 194259.539721571
 -418333.654448711 -1171203.32868796 211728.947819589
 -425019.309858808 -1165539.84537364 228964.813917959
 -430581.858678741 -1160011.03324298 246014.423663075
 -434953.922283732 -1154650.82296315 262956.257654137
 -438095.109663917 -1149471.00416374 279890.186312975
 -439990.429167941 -1144461.19991661 296928.299501749
 -440649.505369829 -1139589.61694660 314186.169784392
 -440106.599898181 -1134804.57295118 331774.310117744
 -438421.405099210 -1130036.87936675 349789.584951949
 -435680.536734242 -1125203.24712767 368306.331038808
 -431999.568945318 -1120210.98772999 387366.940147212
 -427525.350096176 -1114964.36673633 406971.702766103
 -422438.196532167 -1109373.07951951 427067.642730044
 -416953.332721051 -1103363.43469489 447536.009981393
 -411320.669733013 -1096892.99342313 468177.849271608
 -405821.520799371 -1089969.77127472 488696.451677709
 -400760.155851305 -1082677.78648273 508674.295652785
 -396446.569053998 -1075212.55441636 527539.109099713
 -393163.148940728 -1067935.12686189 544505.954098246
 -391096.997126432 -1061470.33539438 558456.172707744
 -390192.355057165 -1056950.13491987 567587.675400693
 -339307.898459870 -1214271.93260863 -44308.6294145765
 -342598.781348148 -1213583.75556074 -37282.3574470658
 -348085.507034195 -1212317.59066176 -25922.3857652639
 -355258.311427125 -1210456.56325523 -11656.3953790048
 -363655.691283982 -1208007.99357421 4544.95066267695
 -372845.219830996 -1205011.80684352 21964.0236716408
 -382432.701003606 -1201536.38789348 40062.0604802218
 -392068.795972421 -1197671.11805820 58441.2791861352
 -401451.446314473 -1193517.84850007 76820.0005384772
 -410325.204392242 -1189182.53570912 95013.4428586144
 -418478.677691201 -1184767.77168174 112917.467298266
 -425741.014778308 -1180366.58495899 130494.231162658
 -431978.103839075 -1176057.62951096 147759.266347720
 -437088.944881607 -1171901.70323585 164769.788293065
 -441002.490931833 -1167939.45236822 181614.067496699
 -443675.149756254 -1164190.08640933 198401.701388770
 -445089.057700979 -1160650.95085228 215254.574677325
 -445251.206876903 -1157297.84875644 232298.262923612
 -444193.419797822 -1154086.09199339 249653.618028464
 -441973.164477650 -1150952.33899541 267428.244883666
 -438675.132407112 -1147817.37650670 285707.594081471
 -434413.432128743 -1144590.10277535 304545.394865521
 -429334.164232268 -1141173.05833647 323953.171413581
 -423617.989785410 -1137469.95559893 343888.542639737
 -417482.101839881 -1133395.75562026 364241.934302310
 -411180.732719062 -1128889.97442302 384821.077394112
 -405002.867359803 -1123934.15306302 405332.120523169
 -399265.131614699 -1118574.96351145 425354.953657544
 -394296.413099550 -1112955.81825638 444307.456774086
 -390407.463932612 -1107363.86639265 461385.641771145
 -387829.499463255 -1102313.03869096 475440.506264379
 -386585.837743772 -1098743.63990423 484626.902621906
 -351835.543749753 -1204182.20429219 -133065.397227371
 -354678.952646546 -1204174.14470084 -125367.063866453
 -359558.563287779 -1203935.94993064 -113160.500838336
 -366074.118909634 -1203299.74401952 -98024.9785821879
 -373810.403066948 -1202187.22284290 -81000.5846346954
 -382354.946108692 -1200585.44355578 -62838.8321592122
 -391320.788419126 -1198529.60672740 -44093.6873923760
 -400359.355391563 -1196088.79385471 -25167.7310181600
 -409166.150884408 -1193353.37424542 -6341.61386845227
 -417481.883586829 -1190424.02891137 12204.0643296971
 -425090.893049390 -1187402.53056238 30370.9397200520
 -431818.126894053 -1184384.34064465 48127.6411264414
 -437525.548637816 -1181452.93924317 65496.3935022459
 -442108.562119260 -1178675.70427671 82541.1071382398
 -445492.818061655 -1176101.11255462 99356.6959103329
 -447631.660159831 -1173757.02208216 116059.385033416
 -448504.334492211 -1171649.84468923 132777.762823317
 -448115.081564422 -1169764.45974397 149644.289277516
 -446493.103820269 -1168064.82894281 166786.973552185
 -443693.417176731 -1166495.34133292 184320.918838825
 -439798.505484265 -1164983.03287460 202339.414368662
 -434920.670064214 -1163440.90270610 220904.295069739
 -429204.828166587 -1161772.65951679 240035.276567298
 -422831.430566851 -1159879.29927536 259697.946384358
 -416018.929750575 -1157668.00787069 279790.036564650
 -409024.992243972 -1155063.96679008 300125.339253329
 -402145.201856989 -1152025.79814176 320414.150683458
 -395707.335235542 -1148565.75647936 340237.914998796
 -390058.009624200 -1144776.76469766 359013.006805227
 -385535.690666748 -1140871.38456043 375931.038931650
 -382416.715126014 -1137248.20243849 389837.675143905
 -380809.122952012 -1134645.21232672 398891.069014503
 -363185.669797835 -1187532.50447307 -222288.440977845
 -365595.764681622 -1188314.31310788 -214005.282712276
 -369871.871330535 -1189251.41743861 -201060.428323565
 -375717.513925277 -1190001.00458352 -185157.742854483
 -382764.047825518 -1190386.65487989 -167393.926099610
 -390621.657408902 -1190335.00184674 -148548.763241577
 -398914.122602862 -1189843.22412359 -129189.998506552
 -407297.130569148 -1188956.96685369 -109726.064903341
 -415466.838746856 -1187753.13482934 -90439.0818381177
 -423162.638129028 -1186325.97256916 -71508.7366583513
 -430166.531673905 -1184775.87457068 -53031.2453359938
 -436300.659616778 -1183200.61595523 -35035.2356932200
 -441424.000846444 -1181688.70287045 -17495.4823892726
 -445428.947597481 -1180314.51933475 -344.976414075006
 -448238.170916408 -1179134.95802048 16514.3521372775
 -449802.085405653 -1178187.22854842 33201.9482721895
 -450097.062864806 -1177487.60872186 49849.7364676602
 -449124.523950474 -1177030.95737254 66593.6805703093
 -446910.923982407 -1176790.91650528 83565.5178576275
 -443508.641940967 -1176720.81080145 100884.334112936
 -438997.708982943 -1176755.35814549 118647.669604423
 -433488.272026637 -1176813.39078560 136921.847058836
 -427123.589794737 -1176801.87445274 155731.237214416
 -420083.241391785 -1176621.58242331 175046.145334268
 -412586.037414307 -1176174.83827204 194768.946358124
 -404891.895733921 -1175375.77373154 214717.894487009
 -397301.508884116 -1174163.63317313 234607.554207097
 -390152.064001672 -1172519.82642026 254023.728272776
 -383806.147004803 -1170490.05084989 272388.166596316
 -378628.740654234 -1168214.77829281 288901.262454534
 -374942.082032046 -1165978.46399894 302426.995374251
 -372945.179605038 -1164316.69475461 311171.911078154
 -372945.049968868 -1164316.78530592 -311171.727632132
 -374941.953983677 -1165978.55252263 -302426.812830958
 -378628.616867631 -1168214.86322630 -288901.081245836
 -383806.027996757 -1170490.13108723 -272387.989492375
 -390151.950715162 -1172519.90164093 -254023.555065351
 -397301.400313154 -1174163.70423888 -234607.382399156
 -404891.794717589 -1175375.83946243 -214717.725158676
 -412585.945485145 -1176174.89808627 -194768.779887394
 -420083.159205127 -1176621.63612588 -175045.981592426
 -427123.517443266 -1176801.92215936 -155731.075151599
 -433488.209288722 -1176813.43247681 -136921.687357255
 -438997.659579707 -1176755.39236863 -118647.512969511
 -443508.606703421 -1176720.83742594 -100884.178474803
 -446910.901596938 -1176790.93601604 -83565.3628201325
 -449124.513223681 -1177030.97025907 -66593.5251473171
 -450097.065418126 -1177487.61425922 -49849.5826169654
 -449802.102106782 -1178187.22651173 -33201.7942869047
 -448238.200748713 -1179134.94884548 -16514.1975185555
 -445428.988964421 -1180314.50367883 345.129646201722
 -441424.054132126 -1181688.68069767 17495.6355561339
 -436300.726851151 -1183200.58662804 35035.3888399621
 -430166.612557355 -1184775.83824295 53031.4008452318
 -423162.729198847 -1186325.93055369 71508.8947743805
 -415466.939038055 -1187753.08760362 90439.2413356065
 -407297.241101888 -1188956.91402733 109726.227021388