# OOMMF OVF 2.0
#
# Segment count: 1
#
# Begin: Segment
# Begin: Header
#
# Title: Oxs_MinDriver::Magnetization
# Desc: Oxs vector field output
# Desc:  MIF source file: C:/Users/grl31/Documents/GitHub/phd-work/Skyrmions/stdprob3/drive-85/stdprob3.mif
# Desc:  Iteration: 543, State id: 1151
# Desc:  Stage: 0, Stage iteration: 543
# Desc:  Stage simulation time: -1 s
# Desc:  Total simulation time: -2 s
# meshunit: m
# meshtype: rectangular
# xbase: 3.1249999999999999e-09
# ybase: 3.1249999999999999e-09
# zbase: 3.1249999999999999e-09
# xnodes: 16
# ynodes: 16
# znodes: 16
# xstepsize: 6.2499999999999997e-09
# ystepsize: 6.2499999999999997e-09
# zstepsize: 6.2499999999999997e-09
# xmin: 0
# ymin: 0
# zmin: 0
# xmax: 9.9999999999999995e-08
# ymax: 9.9999999999999995e-08
# zmax: 9.9999999999999995e-08
# valuedim: 3
# valuelabels: Magnetization_x Magnetization_y Magnetization_z
# valueunits: A/m A/m A/m
#
# End: Header
#
# Begin: Data Text
 501892.098067179 -1157377.09532201 -11489.6492843049
 608587.462505173 -1104335.13449175 -40182.6097654547
 744483.870797690 -1015911.13791933 -72234.0424764961
 879033.559075008 -899394.287109250 -99696.2850567790
 997994.321878296 -762601.921529035 -118300.776404288
 1095832.06716442 -612336.995646086 -125478.744240777
 1171116.19480638 -453456.482021337 -120056.270531780
 1223665.90586543 -289403.349911844 -102161.063039187
 1253408.45962713 -123069.526848291 -73284.0761382717
 1260305.16938209 43108.4431136591 -36358.9477301494
 1244344.99639992 207689.983962857 4453.24768632409
 1205248.24107458 370093.918913084 44233.4657147958
 1142705.58157662 528907.902568080 77651.8857056083
 1058568.75326682 679069.468033225 99228.4390241109
 962249.052792785 809147.511481912 104434.170561989
 880170.879199367 898861.700148141 94320.1904957782
 447938.690251198 -1179196.97472827 19870.9709551175
 538962.581171774 -1140625.61509186 -6478.67362379305
 667456.917953611 -1069781.88230510 -40217.1342413309
 805433.270458382 -968169.036806544 -73995.9047972105
 936852.075828759 -838631.941173204 -102733.082200244
 1052227.22292652 -685161.006516829 -122154.399839520
 1145620.37041574 -512321.448750925 -128957.865045907
 1212792.32651863 -325540.782782251 -121274.079679069
 1250742.75305538 -131577.517350557 -99394.9371259222
 1258269.22889882 62432.2793474938 -66409.2540297392
 1235996.88699706 251175.827989585 -27781.8229474740
 1185327.86421031 431794.517061961 10038.9382313952
 1108083.09222594 601697.651502980 40758.1625903840
 1008752.87489906 755318.888497125 58825.5470123212
 900015.127711220 881961.475748854 60548.7911094333
 812062.296454994 964238.451014135 48460.9861750261
 368418.237907908 -1205883.29188835 40778.9068060457
 442230.395171379 -1181395.85599423 16897.9272451204
 556742.186210849 -1131927.78436986 -18084.7997959880
 692860.933950950 -1052610.70367926 -59193.4424022391
 836722.125346871 -938666.297828205 -101740.342025472
 976130.813308034 -786868.961853999 -139840.277103412
 1098684.75083698 -597249.629639282 -166535.669131217
 1191524.26606433 -375721.649990462 -175078.828038252
 1243725.29652849 -136000.820510754 -161865.977013280
 1250594.43867748 103619.901199871 -129714.675126804
 1214924.45411727 328450.169446694 -87341.2153410451
 1143358.73242583 531276.139854405 -45010.0336141636
 1043455.90610867 708959.766817519 -11191.6022062658
 925141.277692498 857666.957902097 8392.64865278540
 805510.740748946 970863.407742489 11230.3590183138
 715738.727804464 1038877.62620364 884.428231042522
 278626.933724363 -1229576.01958773 45379.2328836422
 335964.682405229 -1215785.40723603 23302.5030251880
 432185.884835622 -1185153.83331242 -13235.6810437650
 558364.265065216 -1129546.49730380 -62477.9068618828
 707279.246311882 -1037516.10630170 -121925.501106245
 868929.491174686 -895574.522519757 -185626.627667922
 1026375.20608465 -692406.525279579 -242232.473058211
 1154181.53494493 -428370.102570086 -275523.992667102
 1225436.69605260 -126363.964589524 -271820.682325426
 1227827.71495148 173192.462543258 -232363.732613711
 1170303.27935822 437862.375283779 -173828.091956385
 1071277.40231482 656260.385019856 -115049.838166535
 947949.985545375 829607.540887980 -68495.1379681460
 815934.740681839 961354.227531361 -39974.7304555450
 693673.969211818 1053296.81503262 -30523.3484241840
 608039.968187726 1104782.43938782 -35952.6024861008
 186323.927105236 -1247200.41709469 36386.0509793945
 227777.982741715 -1240737.88499406 15366.2694738789
 302700.532397556 -1224484.22101396 -23668.7788662674
 410600.940958328 -1190015.21226430 -82583.8530381923
 552668.424664364 -1122300.42671877 -162938.011172421
 726399.924193481 -997723.258146592 -261612.081532958
 916438.691663849 -787011.705507542 -363733.598578020
 1084513.70033389 -474024.312515227 -436669.687351327
 1177640.34727420 -91499.9842591501 -443103.144054999
 1170080.31699164 279255.846016018 -380102.164126394
 1084778.36881728 577831.763934452 -284456.981024317
 959695.794046625 795845.702716583 -192777.154444502
 821954.588601811 949122.226803326 -122910.877400162
 688618.260041350 1054085.74654875 -79104.7519390258
 574410.650873967 1121635.75768277 -59456.3887979734
 498603.330197550 1157381.98077942 -58404.6282582315
 93957.0861605226 -1257929.97813678 18266.5536971110
 119514.320290623 -1255890.44068293 -2226.91842081911
 170263.186408554 -1249228.97912210 -44573.9385126201
 251355.541860115 -1230952.80428613 -114564.462706684
 371053.181501894 -1185586.41240903 -219667.535442465
 536810.309292819 -1082137.03103746 -363818.043551069
 742863.135335844 -869551.845762237 -532525.474141322
 945490.414683553 -501012.673855912 -668269.112929983
 1059864.71493779 -18268.7882365021 -684033.967230539
 1041468.08492299 427299.504486291 -569481.160769658
 935507.075734069 741425.638010861 -408244.982174469
 800902.366491789 937416.760412736 -267122.907224555
 668102.752638938 1057085.78442051 -166606.684173576
 549553.261297565 1130737.98987469 -104748.470968832
 453480.393246108 1174909.23804328 -74116.4369143159
 391777.100809828 1197342.25712179 -66570.6655404172
 1273.43613587102 -1261557.38319754 -4558.30880318145
 10277.3464320855 -1261284.52196025 -24600.0352191338
 33588.9137691871 -1259166.00382293 -70158.3252889496
 78909.3785786281 -1250025.33473074 -150862.200111896
 157554.334250979 -1219717.66345829 -281095.862875177
 283935.552975221 -1133388.18438079 -475774.375288982
 466154.261258332 -919190.827135546 -727556.086456242
 672429.302438257 -489417.437058816 -948608.895406391
 802463.950443480 104089.874725533 -967866.900527764
 793219.923247519 609357.199961098 -768788.258974942
 702083.745698346 910102.524906187 -519943.496069061
 593230.798607548 1065391.01323802 -323370.746070295
 491554.990207000 1145727.12995054 -192957.161610665
 403716.902664853 1189665.23456387 -115146.528787240
 333612.757606677 1214322.50074294 -75318.1456917188
 288718.150217870 1226501.05909757 -62341.0994951065
 -92802.5763799570 -1257835.86306627 -28036.6602955276
 -101331.216552281 -1256608.97863875 -47066.8702536861
 -108575.784970352 -1253349.84811638 -94206.6243088560
 -106940.183881698 -1243801.81539035 -181852.335761694
 -87142.4157257874 -1214609.76706135 -329664.593275669
 -35831.4330061731 -1128786.84620835 -562232.865594578
 63808.1956269588 -900416.690112912 -881321.581067827
 212604.681296684 -411537.021194592 -1173450.45084825
 349387.647362325 265076.979837824 -1182882.87566844
 401298.311043721 787492.569772811 -900202.504453873
 386923.364289570 1050852.63690898 -580989.222436384
 347024.559769210 1162336.57101168 -346550.258295603
 300702.766024953 1209117.17249635 -197896.287479886
 255373.644299627 1230474.10111871 -110757.479170372
 216012.397944245 1241220.97227108 -65257.7416692500
 189237.857687890 1246351.27159699 -48445.5562999201
 -189237.832643151 -1246351.27777915 -48445.4950821704
 -216012.371165676 -1241220.97999947 -65257.6833138755
 -255373.610707097 -1230474.11340927 -110757.420081185
 -300702.727516193 -1209117.19543061 -197896.205868895
 -347024.519952260 -1162336.61821018 -346550.139862300
 -386923.322269304 -1050852.73229973 -580989.077884621
 -401298.276702761 -787492.765846003 -900202.348238750
 -349387.641441235 -265077.296995377 -1182882.80634419
 -212604.699980279 411536.715719149 -1173450.55459544
 -63808.2101394415 900416.515541491 -881321.758370843
 35831.4365553190 1128786.76884278 -562233.020694096
 87142.4274918501 1214609.73463029 -329664.709653776
 106940.201748607 1243801.80266508 -181852.412290900
 108575.803320977 1253349.84198401 -94206.6847459726
 101331.233575739 1256608.97537277 -47066.9207998589
 92802.5894456694 1257835.86092915 -28036.7129271243
 -288718.112533516 -1226501.07124844 -62341.0349645944
 -333612.719186747 -1214322.51530057 -75318.0811615856
 -403716.854823248 -1189665.25707499 -115146.463946061
 -491554.931763510 -1145727.16823909 -192957.083147448
 -593230.737202921 -1065391.07736970 -323370.647427488
 -702083.681377800 -910102.639940982 -519943.381566112
 -793219.870934794 -609357.400085781 -768788.154327211
 -802463.942484847 -104090.153263658 -967866.877170708
 -672429.344354851 489417.180470063 -948608.998075705
 -466154.315458216 919190.676627761 -727556.241880471
 -283935.585956798 1133388.11845149 -475774.512662584
 -157554.347495307 1219717.63718596 -281095.969451339
 -78909.3790972414 1250025.32552397 -150862.276126749
 -33588.9103563964 1259166.00097604 -70158.3780174810
 -10277.3370083501 1261284.52118474 -24600.0789177143
 -1273.42652082498 1261557.38303373 -4558.35682543931
 -391777.048283994 -1197342.27775207 -66570.6036049726
 -453480.339009045 -1174909.26253727 -74116.3804790834
 -549553.201513923 -1130738.02384995 -104748.417862298
 -668102.687377454 -1057085.83592389 -166606.619097384
 -800902.296099619 -937416.842440211 -267122.830418399
 -935507.012054120 -741425.760143804 -408244.906289975
 -1041468.04192390 -427299.687787845 -569481.101869556
 -1059864.71804858 18268.5689766885 -684033.968266419
 -945490.463872650 501012.479123559 -668269.189329644
 -742863.196150164 869551.723737443 -532525.588558671
 -536810.356482257 1082136.97220782 -363818.148905796
 -371053.209698311 1185586.38717027 -219667.624032471
 -251355.556065962 1230952.79508263 -114564.530427089
 -170263.186506083 1249228.97731927 -44573.9886660074
 -119514.311253789 1255890.44146644 -2226.96154277902
 -93957.0765102316 1257929.97945838 18266.5123229654
 -498603.265127675 -1157382.01086162 -58404.5876356965
 -574410.584528319 -1121635.79399652 -59456.3447126231
 -688618.192680550 -1054085.79384192 -79104.7081340290
 -821954.521118491 -949122.291507125 -122910.829043213
 -959695.732222169 -795845.789655495 -192777.103311388
 -1084778.31988168 -577831.879620828 -284456.932640947
 -1170080.29389976 -279255.989216074 -380102.130003714
 -1177640.35867312 91499.8229731090 -443103.147065199
 -1084513.73845125 474024.175575559 -436669.741337048
 -916438.741209684 787011.612948210 -363733.674016608
 -726399.962438216 997723.209696293 -261612.160118826
 -552668.448896917 1122300.40492567 -162938.079086820
 -410600.951125317 1190015.20452386 -82583.9140267927
 -302700.530781887 1224484.22045285 -23668.8285576410
 -227777.975143323 1240737.88688211 15366.2296569556
 -186323.913647754 1247200.42029512 36386.0101909477
 -608039.899113545 -1104782.47833514 -35952.5738802922
 -693673.899556936 -1053296.86177820 -30523.3183096026
 -815934.671983804 -961354.287202899 -39974.6976253890
 -947949.927038960 -829607.610461451 -68495.1050092409
 -1071277.35435139 -656260.470287350 -115049.798396497
 -1170303.24763667 -437862.473584617 -173828.057908910
 -1227827.70373283 -173192.569404025 -232363.712245138
 -1225436.70613563 126363.858094641 -271820.686375891
 -1154181.55916441 428370.013974140 -275524.028954918
 -1026375.23554904 692406.464426068 -242232.522159175
 -868929.513686997 895574.489275172 -185626.682678290
 -707279.261382576 1037516.09068971 -121925.546531566
 -558364.268819590 1129546.49265312 -62477.9573894759
 -432185.873792195 1185153.83681864 -13235.7276901487
 -335964.664787489 1215785.41293819 23302.4595247639
 -278626.911352985 1229576.02618598 45379.1914597511
 -715738.659101054 -1038877.67352154 884.446523741304
 -805510.677238034 -970863.460166759 11230.3823400995
 -925141.219215205 -857667.020667913 8392.68053619896
 -1043455.85881056 -708959.836943172 -11191.5697908691
 -1143358.69756804 -531276.217585752 -45010.0015802035
 -1214924.43436589 -328450.249520258 -87341.1889646262
 -1250594.43380360 -103619.979723472 -129714.659389447
 -1243725.30427538 136000.754128271 -161865.973263729
 -1191524.28026672 375721.595946766 -175078.847360373
 -1098684.76422353 597249.595897962 -166535.701823229
 -976130.823326698 786868.942551816 -139840.315781546
 -836722.128766767 938666.290711678 -101740.379557692
 -692860.925877922 1052610.70672620 -59193.4827149303
 -556742.163461551 1131927.79493228 -18084.8390328021
 -442230.369426561 1181395.86614685 16897.8911980114
 -368418.208373733 1205883.30223007 40778.8678158578
 -812062.222217920 -964238.512369202 48461.0093732752
 -900015.069587136 -881961.533341346 60548.8161832841
 -1008752.82821796 -755318.948131600 58825.5818042121
 -1108083.05722426 -601697.713698673 40758.1960012261
 -1185327.84041386 -431794.581655200 10038.9696671877
 -1235996.87507820 -251175.889583178 -27781.7963419582
 -1258269.22716216 -62432.3318757934 -66409.2375520589
 -1250742.75767787 131577.475462327 -99394.9344094739
 -1212792.33425807 325540.749024111 -121274.092899650
 -1145620.37603351 512321.430249589 -128957.888641255
 -1052227.22362324 685161.000718900 -122154.426358429
 -936852.069364725 838631.945262204 -102733.107768218
 -805433.253428993 968169.048959273 -73995.9311519040
 -667456.889945516 1069781.89878856 -40217.1606102064
 -538962.554534744 1140625.62752197 -6478.70113922449
 -447938.663768769 1179196.98523368 19870.9445119539
 -880170.806902699 -898861.768235198 94320.2162863127
 -962248.996537923 -809147.574485324 104434.200744926
 -1058568.71094849 -679069.528390676 99228.4774199218
 -1142705.55410167 -528907.955805436 77651.9274060094
 -1205248.22321727 -370093.973159770 44233.4984078122
 -1244344.98816997 -207690.032864398 4453.26666677056
 -1260305.16849722 -43108.4820109207 -36358.9322844475
 -1253408.46295582 123069.497379699 -73284.0686943869
 -1223665.91076201 289403.327808237 -102161.067004248
 -1171116.19693258 453456.472153883 -120056.287061053
 -1095832.06348470 612336.998696810 -125478.761488978
 -997994.312897646 762601.930389495 -118300.795048575
 -879033.538806634 899394.305656625 -99696.2964431279
 -744483.837613231 1015911.16133741 -72234.0551381445
 -608587.432921503 1104335.15019434 -40182.6262731323
 -501892.074294969 1157377.10547764 -11489.6647059369
 513350.327631842 -1152288.52955827 15875.0334697294
 626851.674314041 -1094773.28673354 -8823.83042024823
 767921.760590135 -1000037.82698793 -42070.7157575997
 903523.769850092 -877360.989673021 -73701.5741677724
 1019937.82578061 -736036.591138635 -97603.2733359077
 1112983.64905244 -583654.575416734 -110291.270987214
 1182613.83295992 -425241.940728609 -110196.392210246
 1229801.48742534 -263974.337350715 -97238.2726380197
 1255320.28935577 -102151.804391724 -72700.8315647626
 1259592.46714109 58615.9441913224 -39248.1684532191
 1242620.80796008 217812.828532209 -728.196670690371
 1203697.94453860 375760.964291072 38267.3091234809
 1141655.10494582 531858.975422319 72794.7974296929
 1057059.65412296 681592.878756560 98007.4801877038
 958016.862502545 813342.904571385 110573.241171254
 871693.636044229 905037.455953395 112280.181333802
 457465.143192867 -1175258.88885171 32274.1050614385
 553760.392973482 -1133498.56516113 8936.49094880496
 687417.468835818 -1057520.00193866 -25653.4589865100
 827628.505348486 -950083.003458503 -62632.0572299469
 958028.831793331 -815243.772338335 -95434.6898942966
 1069743.22306848 -658065.901644380 -118945.940287988
 1157877.42857019 -483856.269774810 -129431.068628187
 1219429.57346017 -298284.540431367 -124768.903294607
 1252563.25743975 -107722.733899323 -105026.328280791
 1256802.67577652 81631.3031590727 -73025.9914310375
 1232827.09713887 265580.203683100 -33969.6171709561
 1181507.62557949 442215.616015603 5874.56963690281
 1103756.40992537 609626.040563208 40339.9198665480
 1002938.81658117 762591.867943886 64162.3258585736
 890859.170267827 890155.933249810 74443.1606585456
 799137.397675546 973369.203702596 74035.4228642130
 376144.981304318 -1203365.67660632 44445.8358494075
 454124.414529316 -1176784.01628939 22356.7898671140
 573600.755072164 -1123535.60145041 -14119.3828851854
 713088.363477022 -1039034.68564139 -58833.1439472854
 857718.280707471 -919054.857431269 -105862.887222874
 994860.236758003 -761437.970286557 -148373.709405177
 1112369.72601935 -567679.572460847 -178669.881528079
 1198595.97597161 -344975.604267537 -189496.569266757
 1244480.70348438 -107247.879863234 -176960.735302562
 1246767.25178123 128367.719859239 -143675.256404793
 1208419.93460565 348733.583161915 -98262.8136259433
 1135333.36641747 547676.175437567 -51170.1561088022
 1034097.36010053 722541.338138973 -11229.2222528585
 913784.668149000 869656.360013392 15646.9378164995
 791075.002932159 982344.539474761 27367.4335471769
 698613.505518960 1050102.63370806 27803.9476486686
 285908.339145961 -1227907.66621335 45261.6369593445
 346869.897000505 -1212711.78492746 23681.8954450594
 447830.762965355 -1179302.70921743 -15561.4489447075
 578049.688961160 -1119165.60946843 -69830.6995097796
 729026.689528105 -1020627.87270942 -135603.327109942
 889346.434332190 -870796.408018252 -205732.754908119
 1041135.25683306 -660348.832761262 -267443.876297334
 1159927.66380516 -392552.388940911 -303347.766755000
 1222094.85579737 -91704.5840633311 -299372.449658167
 1218275.72965142 203569.576730072 -256735.476495152
 1157551.28626698 463299.599797408 -192296.467487509
 1056965.86977139 677168.506424543 -125759.273869219
 932580.505531145 846663.999114417 -70732.6249040055
 799330.708846489 975440.101128168 -33711.3916205330
 675306.697646117 1065490.92914764 -15471.7464220531
 588292.669450145 1115945.32176327 -11278.5116411731
 194481.427634643 -1245981.98881031 35430.0548185505
 239281.705299223 -1238591.37212771 13605.4885555581
 318788.664491481 -1220267.76897655 -29492.2075757923
 431091.722880668 -1181794.46832154 -95242.8056460735
 575922.721714173 -1107173.67744017 -184469.231894929
 748386.885211021 -972560.511218055 -292562.049798629
 930509.958908836 -751015.034436790 -402090.867019307
 1084553.31973837 -432023.434443364 -478172.855414426
 1164036.76959970 -51825.4371505105 -483613.434473251
 1149291.15775290 312609.907822660 -415877.759877901
 1062141.28836457 605257.704304812 -311558.061763578
 937338.722622201 818083.781693074 -209008.315917555
 800425.031000209 966636.884584934 -128383.542664948
 667814.275578823 1067678.17112050 -75078.9395560792
 553742.079687201 1132572.25360493 -46895.9536304483
 477845.292931334 1166967.24810323 -37426.5787469635
 103926.920794578 -1257145.50226450 18270.5278862799
 132646.863661505 -1254566.08665698 -4263.17838111043
 187925.856225574 -1246410.72088530 -51900.0803758639
 273739.957237351 -1224587.72966679 -130386.959011220
 396662.867111665 -1171890.90340236 -246738.143173083
 560608.933385106 -1055925.24014054 -402851.017079404
 754638.984641699 -828269.379486788 -579688.941400877
 934465.037481193 -452935.884747598 -716361.367573753
 1028417.71898850 21284.8694628979 -730378.929406782
 1003979.39579546 456100.364347457 -612819.109835242
 900629.709344869 764593.697273779 -442506.537413341
 770279.399013735 956569.906845570 -288432.126663191
 641404.270675976 1072090.24867192 -175420.897216247
 526040.341653296 1141991.20241231 -103378.351143402
 432004.187029627 1183535.24057551 -64545.7018219771
 371318.415537179 1204656.91515416 -49737.1287187073
 13585.9692261388 -1261490.81354857 -2404.09893729595
 25583.2948707645 -1261046.71420229 -25614.6548311635
 53456.9446123534 -1258053.43205454 -77416.7171059231
 103987.969157906 -1246028.25475813 -167778.191472466
 186757.231004274 -1208358.81216036 -310709.106176450
 311863.477224638 -1107315.48749933 -517825.273269316
 479372.502968958 -873892.608988058 -773345.422351665
 653758.158292669 -440044.731358198 -985144.829854282
 755290.085327883 130750.516266845 -1001993.32354078
 741506.290076857 620570.760282913 -810314.620488422
 657666.969712959 920857.539826332 -557714.065819146
 556848.942252546 1077058.56319483 -348444.454511575
 461837.871050557 1155992.59771913 -204783.607256575
 379183.198369505 1197581.28837783 -116484.293879167
 312571.587637150 1220290.94580789 -68836.3356100827
 269536.753116931 1231435.04068676 -49670.0131562693
 -77971.0178969548 -1258946.26647160 -22896.4937118644
 -83723.5827611514 -1257939.65317571 -46126.1485142368
 -86398.9298266812 -1254610.79427319 -100181.888268001
 -78943.3981238847 -1243414.69590723 -198083.984242895
 -53316.3589947649 -1208220.94064299 -359038.932950550
 454.991143994172 -1108262.61260426 -602746.385642912
 91283.0802693579 -860836.407614656 -917702.298951346
 211284.756770807 -376086.874729130 -1185523.86949050
 313784.196913246 261746.513727782 -1193556.73147019
 353222.794611007 770445.244273799 -934450.220109145
 342246.377595336 1044226.54439513 -619683.606304410
 309753.358729607 1164301.52350541 -374171.417986020
 270718.561255749 1213757.24498940 -212259.844874882
 231424.566348364 1234848.65258728 -114633.791757956
 196368.673313471 1244659.91605791 -61728.9917200450
 172022.239437875 1249151.35093549 -39732.6378909724
 -172022.218964263 -1249151.35565199 -39732.5782495956
 -196368.651645833 -1244659.92233295 -61728.9341224171
 -231424.538693067 -1234848.66378236 -114633.726994127
 -270718.527481978 -1213757.26723101 -212259.760766982
 -309753.322299560 -1164301.56954257 -374171.304891273
 -342246.340342480 -1044226.64057020 -619683.464814578
 -353222.757134030 -770445.426922247 -934450.083683545
 -313784.172813490 -261746.798416386 -1193556.67537385
 -211284.751098030 376086.598750938 -1185523.95805076
 -91283.0854058332 860836.238773125 -917702.456819575
 -454.992336506244 1108262.53074090 -602746.536163168
 53316.3694674774 1208220.90580827 -359039.048619521
 78943.4101710402 1243414.68184338 -198084.067723373
 86398.9433823414 1254610.78850461 -100181.948819171
 83723.5942052107 1257939.65039230 -46126.2036506603
 77971.0282261202 1258946.26496850 -22896.5411836710
 -269536.720525700 -1231435.05043169 -49669.9484146500
 -312571.554526069 -1220290.95776178 -68836.2740489662
 -379183.157098296 -1197581.30795893 -116484.226912056
 -461837.821088876 -1155992.63129855 -204783.530378508
 -556848.886088188 -1077058.62459956 -348444.354462802
 -657666.907752276 -920857.650541860 -557713.956078777
 -741506.239792557 -620570.948580724 -810314.522296914
 -755290.064945580 -130750.772785071 -1001993.30543151
 -653758.180971610 440044.490826409 -985144.922244931
 -479372.542525816 873892.460185939 -773345.565980342
 -311863.504712470 1107315.41784547 -517825.405662106
 -186757.245684108 1208358.78244556 -310709.212914765
 -103987.977600029 1246028.24333458 -167778.271078667
 -53456.9434883593 1258053.42832910 -77416.7784219149
 -25583.2887634247 1261046.71333825 -25614.7034690308
 -13585.9652233077 1261490.81351161 -2404.14095392689
 -371318.368724023 -1204656.93206548 -49737.0686074935
 -432004.139237398 -1183535.26110885 -64545.6451878028
 -526040.286047866 -1141991.23330587 -103378.292818969
 -641404.208396490 -1072090.29721731 -175420.828246593
 -770279.335452712 -956569.980301542 -288432.052794744
 -900629.646548791 -764593.814926099 -442506.461933730
 -1003979.35342788 -456100.532051972 -612819.054429117
 -1028417.71247065 -21285.0779074376 -730378.932509743
 -934465.068637636 452935.698788474 -716361.444508294
 -754639.035593014 828269.255998307 -579689.051514870
 -560608.976461553 1055925.17514760 -402851.127489053
 -396662.894882050 1171890.87480635 -246738.234346335
 -273739.972338832 1224587.71876009 -130387.029741651
 -187925.858133558 1246410.71824879 -51900.1367845094
 -132646.863898620 1254566.08647861 -4263.22349519197
 -103926.919109921 1257145.50296395 18270.4893415421
 -477845.233686218 -1166967.27379060 -37426.5342244820
 -553742.017245442 -1132572.28607066 -46895.9068639280
 -667814.212197680 -1067678.21410292 -75078.8920786264
 -800424.971393513 -966636.941185945 -128383.488125717
 -937338.663540655 -818083.862796418 -209008.263432012
 -1062141.23937427 -605257.812561064 -311558.018470459
 -1149291.12883264 -312610.051243309 -415877.731992471
 -1164036.77125410 51825.2842352318 -483613.446878012
 -1084553.35216690 432023.295432040 -478172.907457672
 -930510.002059748 751014.938810596 -402090.945768538
 -748386.920974613 972560.459451868 -292562.130399448
 -575922.749295447 1107173.65087362 -184469.305235588
 -431091.736993659 1181794.45796428 -95242.8702825412
 -318788.665662732 1220267.76747098 -29492.2572096019
 -239281.702661481 1238591.37312091 13605.4445292090
 -194481.421931082 1245981.99080980 35430.0158095415
 -588292.606101744 -1115945.35545319 -11278.4824970066
 -675306.631049500 -1065490.97184269 -15471.7129384787
 -799330.644591103 -975440.155175078 -33711.3513307432
 -932580.449028161 -846664.064598011 -70732.5860389865
 -1056965.82386181 -677168.585449697 -125759.234202283
 -1157551.25307487 -463299.695897717 -192296.435756968
 -1218275.71481054 -203569.685463894 -256735.460702182
 -1222094.86242415 91704.4753076978 -299372.455920693
 -1159927.68572473 392552.294136212 -303347.805623567
 -1041135.28555025 660348.766506098 -267443.928095260
 -889346.458010892 870796.369350280 -205732.816217553
 -729026.705089797 1020627.85353348 -135603.387776635
 -578049.690685094 1119165.60523161 -69830.7531420764
 -447830.755966618 1179302.71121487 -15561.4989825488
 -346869.886198939 1212711.78878316 23681.8562116987
 -285908.324059467 1227907.67111144 45261.5993768257
 -698613.435551134 -1050102.67958256 27803.9730959633
 -791074.940220513 -982344.589169048 27367.4625122466
 -913784.612915732 -869656.417392820 15646.9743044351
 -1034097.31376194 -722541.404989937 -11229.1880585135
 -1135333.33219755 -547676.249379374 -51170.1239582244
 -1208419.91344276 -348733.664160301 -98262.7864213348
 -1246767.24559989 -128367.795339257 -143675.242606188
 -1244480.70901226 107247.805046289 -176960.741770771
 -1198595.98932290 344975.542486232 -189496.597289591
 -1112369.74382699 567679.526098327 -178669.917966068
 -994860.251183738 761437.942869731 -148373.753379415
 -857718.288010920 919054.845810610 -105862.928934570
 -713088.359502995 1039034.68591918 -58833.1872084539
 -573600.735899404 1123535.61076161 -14119.4208502984
 -454124.389511178 1176784.02664355 22356.7530436033
 -376144.955964097 1203365.68580891 44445.8011445041
 -799137.327529534 -973369.259507586 74035.4463318900
 -890859.110009095 -890155.990810741 74443.1934867381
 -1002938.76571424 -762591.931652959 64162.3637685212
 -1103756.37302893 -609626.104844503 40339.9579709154
 -1181507.60122578 -442215.680653247 5874.60203178177
 -1232827.08397378 -265580.267536717 -33969.5957406335
 -1256802.67282055 -81631.3599976514 -73025.9787678681
 -1252563.26196494 107722.686087230 -105026.323352086
 -1219429.58267972 298284.498781286 -124768.912759997
 -1157877.43789242 483856.239725112 -129431.097568203
 -1069743.23039407 658065.884319762 -118945.970253152
 -958028.832676730 815243.767515870 -95434.7222217668
 -827628.493058208 950083.012332007 -62632.0850306935
 -687417.442785797 1057520.01819609 -25653.4868455872
 -553760.362573319 1133498.58021343 8936.46550657241
 -457465.112676996 1175258.90142264 32274.0798354799
 -871693.560117804 -905037.525164564 112280.212914399
 -958016.806248875 -813342.965836111 110573.277913682
 -1057059.61249066 -681592.937498955 98007.5206889614
 -1141655.07475261 -531859.034509543 72794.8392480220
 -1203697.92550616 -375761.021994904 38267.3411730889
 -1242620.79886755 -217812.880472884 -728.176375718520
 -1259592.46555426 -58615.9879135675 -39248.1540814898
 -1255320.29251450 102151.769088622 -72700.8266274791
 -1229801.49322782 263974.309621952 -97238.2745280829
 -1182613.83930121 425241.918344116 -110196.410536963
 -1112983.65168604 583654.566254374 -110291.292897427
 -1019937.82325869 736036.591671362 -97603.2956722787
 -903523.753978216 877361.004124645 -73701.5967090216
 -767921.733030963 1000037.84743973 -42070.7326508698
 -626851.642255838 1094773.30496756 -8823.84556297686
 -513350.293553162 1152288.54494274 15875.0187900008
 535355.726812979 -1141226.84927292 50447.5488613032
 652726.721275355 -1079238.63486762 27225.4891811224
 797162.480891317 -977761.919126995 -7939.74075454281
 932722.442109935 -848284.910729328 -44620.4788451214
 1045581.65902794 -701897.085896203 -75159.2045843400
 1132800.22754741 -547093.735626476 -94876.3396520193
 1195788.52829528 -389017.292667882 -101512.425454798
 1236730.17986723 -230439.614940317 -94580.5317741497
 1257219.91302076 -72922.7442058166 -75031.9571950005
 1258032.74835839 82846.4489902971 -45160.8333236421
 1239023.91145183 237273.448296195 -8395.74315847301
 1198893.77286630 391452.573254216 31113.2639562859
 1135539.19244998 545302.212690562 68888.8246654129
 1048473.10932480 694367.737469285 100533.651597512
 945367.964389315 826308.653835222 122649.302576005
 855085.252279118 917803.345136924 134222.434448133
 477237.571218887 -1166581.78156978 53671.9521308544
 577566.055228334 -1121155.90375723 31246.1555593617
 715670.548678071 -1038911.94190717 -5203.23326978141
 857543.911525371 -924111.263862165 -46757.2745975661
 985837.680266387 -782534.309648219 -85519.3154166251
 1092245.53002081 -620710.189605353 -115186.776969437
 1173225.31081004 -444817.570110336 -131259.781786997
 1227358.93554437 -260642.440942084 -131167.801834485
 1254171.44205778 -73883.4581125385 -114650.161199203
 1253897.19836856 110485.124111893 -84168.1899081837
 1227091.32980227 289504.593686453 -44535.2610579150