# OOMMF OVF 2.0
# 
# Segment count: 1
# 
# Begin: Segment
# Begin: Header
# 
# Title: Field
# Desc: File generated by Field class
# meshunit: m
# meshtype: rectangular
# xbase: -7.35e-08
# ybase: -7.35e-08
# zbase: -1.9e-08
# xnodes: 50
# ynodes: 50
# znodes: 15
# xstepsize: 3e-09
# ystepsize: 3e-09
# zstepsize: 2e-09
# xmin: -7.5e-08
# ymin: -7.5e-08
# zmin: -2e-08
# xmax: 7.5e-08
# ymax: 7.5e-08
# zmax: 1e-08
# valuedim: 3
# valuelabels: field_x field_y field_z
# valueunits: None None None
# 
# End: Header
# 
# Begin: Data Text
 0.0 0.0 -0.0
 -0.0 -0.0 0.0
 0.0 -0.0 0.0
 0.0 0.0 0.0
 -0.0 0.0 -0.0
 -0.0 0.0 -0.0
 -0.0 -0.0 -0.0
 0.0 0.0 -0.0
 0.0 0.0 -0.0
 -0.0 0.0 -0.0
 -0.0 -0.0 -0.0
 -0.0 -0.0 0.0
 0.0 -0.0 0.0
 -0.0 -0.0 -0.0
 -0.0 -0.0 -0.0
 -0.0 -0.0 -0.0
 0.0 0.0 0.0
 -0.0 -0.0 0.0
 0.0 -0.0 -0.0
 -0.0 -0.0 0.0
 247699.199294185 223748.518055386 -189836.00116163
 249249.641336627 209035.302355953 -204046.216976737
 249570.479859954 208896.595602569 -203795.946790236
 246622.365517088 215766.126218494 -200195.873092881
 240324.867789587 225539.734663674 -197057.824025735
 231162.30580765 235774.753020645 -196036.359412595
 219865.153010191 244552.626815033 -198265.799394833
 207536.307471838 249603.444953089 -205140.93045637
 196133.60674071 246875.55405961 -219180.448750889
 189526.646807116 226153.119890402 -245744.616449451
 0.0 0.0 0.0
 -0.0 0.0 -0.0
 0.0 0.0 0.0
 0.0 -0.0 0.0
 -0.0 -0.0 0.0
 -0.0 -0.0 0.0
 -0.0 -0.0 0.0
 -0.0 -0.0 -0.0
 -0.0 -0.0 0.0
 -0.0 -0.0 0.0
 -0.0 -0.0 0.0
 -0.0 -0.0 -0.0
 0.0 0.0 0.0
 -0.0 -0.0 -0.0
 -0.0 -0.0 0.0
 -0.0 -0.0 -0.0
 0.0 -0.0 -0.0
 -0.0 -0.0 0.0
 0.0 -0.0 0.0
 0.0 -0.0 0.0
 0.0 0.0 0.0
 0.0 -0.0 -0.0
 0.0 0.0 -0.0
 0.0 -0.0 -0.0
 -0.0 0.0 -0.0
 -0.0 -0.0 0.0
 -0.0 0.0 0.0
 -0.0 -0.0 0.0
 0.0 0.0 0.0
 -0.0 -0.0 -0.0
 0.0 0.0 0.0
 -0.0 -0.0 -0.0
 -0.0 -0.0 0.0
 -0.0 -0.0 0.0
 -0.0 0.0 0.0
 -0.0 0.0 -0.0
 275993.149810151 163893.3825002 -210767.028803166
 284886.318824268 146158.657015349 -211975.07477585
 294134.919135414 148035.857470019 -197550.080355135
 298930.751149712 163376.524972534 -177213.196757375
 296099.707569345 191259.650825793 -152317.789976562
 292779.482073303 201096.920783908 -145932.18743005
 289160.337234639 209450.817652527 -141324.641712046
 283723.352157053 219304.770560316 -137340.733397824
 276135.11643606 230239.720563313 -134889.097208674
 266684.433178774 241196.729330299 -134757.377759003
 255960.487723475 251062.96765789 -137504.963529228
 244738.540675682 258765.054803294 -143525.931874995
 233648.921690067 263656.804087985 -152804.682687341
 221112.496744368 267962.352682661 -163589.245759754
 191235.749929274 288604.56187121 -166109.285761258
 165567.430868124 295797.320023498 -180408.900286669
 145006.367361062 290958.682781158 -204382.480508977
 133107.04767397 266711.146660381 -242081.965678206
 -0.0 0.0 0.0
 0.0 -0.0 0.0
 -0.0 0.0 -0.0
 -0.0 -0.0 -0.0
 0.0 -0.0 0.0
 -0.0 0.0 0.0
 0.0 -0.0 0.0
 0.0 -0.0 -0.0
 0.0 -0.0 -0.0
 0.0 -0.0 0.0
 -0.0 0.0 -0.0
 -0.0 0.0 0.0
 -0.0 -0.0 0.0
 0.0 0.0 -0.0
 0.0 -0.0 0.0
 0.0 -0.0 0.0
 0.0 0.0 -0.0
 -0.0 0.0 -0.0
 0.0 0.0 -0.0
 0.0 -0.0 0.0
 -0.0 -0.0 0.0
 -0.0 -0.0 -0.0
 0.0 0.0 -0.0
 0.0 0.0 -0.0
 0.0 -0.0 0.0
 -0.0 0.0 0.0
 0.0 0.0 -0.0
 0.0 -0.0 -0.0
 -0.0 0.0 -0.0
 0.0 0.0 0.0
 297664.259778152 130462.310624615 -204527.685062955
 309195.68148988 117556.614696949 -195024.287946404
 320194.415550701 131875.959097216 -165952.606675324
 326017.507058762 137768.73014289 -148957.584855575
 329260.003530393 147387.715592453 -131608.173635241
 328443.144843972 163015.443651983 -114048.52360267
 322889.001180931 182915.483403112 -98694.573547822
 316276.842161871 198163.222133497 -90312.2168135931
 309338.614121577 211075.676794498 -84927.5013119245
 301535.656963844 223452.577647751 -81247.7268725636
 292586.599794633 235715.110667242 -79293.5572650448
 282585.714555536 247602.614314137 -79336.3681670743
 271838.30850895 258661.403253527 -81573.3565198197
 260645.373776519 268544.817309197 -86044.5827770045
 248870.586680218 277393.765800385 -92585.7968617494
 234957.108428042 286485.101963472 -100883.316520189
 215041.085028506 298113.634616223 -111092.720759137
 195615.622061551 305171.563515846 -126731.390060895
 178469.906213688 306454.630882188 -147275.42832034
 162102.506178971 303158.264063326 -171096.00936494
 131295.851792747 306955.440399287 -189725.477760096
 113799.410279731 286027.59635608 -229551.537443662
 0.0 -0.0 0.0
 0.0 0.0 -0.0
 -0.0 0.0 -0.0
 0.0 0.0 -0.0
 0.0 -0.0 -0.0
 0.0 0.0 -0.0
 -0.0 -0.0 -0.0
 -0.0 -0.0 -0.0
 0.0 -0.0 -0.0
 0.0 0.0 -0.0
 -0.0 0.0 -0.0
 -0.0 0.0 0.0
 0.0 -0.0 0.0
 -0.0 -0.0 0.0
 0.0 -0.0 -0.0
 0.0 0.0 -0.0
 -0.0 0.0 0.0
 0.0 0.0 -0.0
 -0.0 -0.0 0.0
 -0.0 -0.0 0.0
 -0.0 -0.0 -0.0
 -0.0 -0.0 0.0
 0.0 0.0 0.0
 -0.0 0.0 0.0
 -0.0 -0.0 -0.0
 -0.0 0.0 -0.0
 304319.180864751 99404.2785139596 -212048.639634698
 319406.423665282 82970.5229356155 -196345.17779957
 335722.423616304 97023.7752794146 -159162.939504537
 343777.215359689 105759.418998056 -134492.272985222
 347636.573739532 119657.426890326 -110846.347655778
 348254.155111308 132785.881370114 -92428.0972241191
 346432.003715515 146995.473294021 -76375.3732083855
 341808.380943091 163523.892385359 -62313.4603131949
 334489.711579891 181508.796140573 -51256.1193498015
 326038.735858233 198025.567205584 -44052.4398061206
 317103.885190055 212959.948748712 -39359.7030771099
 307632.75424881 226927.756709772 -36357.6917303819
 297507.086301831 240273.005054062 -34848.4812077275
 286747.104517819 253013.859323543 -34872.4108838705
 275466.012902657 265033.552703005 -36492.3509401228
 263721.885807301 276273.225053751 -39747.6045144891
 251299.764795578 286885.606271427 -44733.4005857287
 237530.570014754 297238.80884988 -51810.4122929976
 221776.126331584 307330.963638699 -61798.2894444979
 206050.175510958 315153.744751281 -75348.8045104115
 191055.858381601 320086.566510162 -92185.9475072261
 175481.647917706 322690.639678532 -111950.624419636
 155400.904689212 324360.430610945 -134524.606952247
 135529.965830524 320614.257448503 -162154.636944869
 100872.483809372 320928.098083844 -185164.515689195
 81876.6281064676 296377.864731625 -230026.90944113
 -0.0 -0.0 -0.0
 0.0 -0.0 -0.0
 0.0 -0.0 -0.0
 -0.0 0.0 -0.0
 0.0 -0.0 -0.0
 -0.0 -0.0 0.0
 -0.0 -0.0 -0.0
 -0.0 0.0 0.0
 -0.0 0.0 0.0
 0.0 0.0 -0.0
 -0.0 0.0 -0.0
 -0.0 -0.0 -0.0
 -0.0 -0.0 0.0
 -0.0 0.0 0.0
 -0.0 0.0 -0.0
 -0.0 -0.0 -0.0
 0.0 0.0 -0.0
 0.0 0.0 -0.0
 -0.0 -0.0 -0.0
 0.0 -0.0 0.0
 0.0 -0.0 -0.0
 0.0 0.0 0.0
 0.0 -0.0 0.0
 324699.487356869 72129.8406235224 -191894.577833278
 340650.716091984 69022.4101563592 -163245.203672959
 352115.761549809 71295.3970496417 -135600.357033941
 359433.948408701 83584.1472856727 -106192.876662506
 362082.400135167 97808.6696893891 -82375.9652201344
 361399.091832223 113783.084765799 -62450.8290098975
 358340.92305215 129965.405035082 -46441.1063627925
 353375.526293044 146559.343467318 -33197.8351635
 346519.559637181 163954.421700381 -22341.4948861531
 337985.496609634 181723.03344567 -14090.5357188232
 328452.196118864 198756.281831114 -8431.80273525335
 318336.622639397 214698.917582871 -4708.44722664528
 307728.398573027 229681.351740072 -2389.42975068675
 296612.257417362 243876.22751783 -1246.75637086272
 284997.732265764 257353.384554433 -1236.14794839118
 272922.731004858 270117.514316701 -2389.84522864832
 260392.842778751 282185.270282414 -4800.0692954706
 247321.567304076 293619.988386955 -8680.1362834998
 233568.505452993 304455.680769598 -14439.2419321754
 219219.008411359 314465.078738457 -22599.5709064708
 204979.036158725 322994.805757027 -33375.8923389447
 191056.730013201 329794.807683854 -46783.6589145481
 176821.391510594 334977.057035043 -63091.7329322823
 161130.763984294 338534.606495039 -82989.1384645402
 144285.95352251 339372.216031294 -107070.362855968
 123328.542308355 337544.385029885 -135313.926803167
 104891.081688671 327465.737594528 -170938.736639336
 78479.0824541473 312434.246641634 -209002.093632169
 0.0 0.0 0.0
 0.0 -0.0 0.0
 -0.0 -0.0 0.0
 -0.0 -0.0 0.0
 -0.0 0.0 0.0
 0.0 -0.0 -0.0
 0.0 -0.0 0.0
 0.0 -0.0 -0.0
 -0.0 -0.0 0.0
 -0.0 -0.0 -0.0
 -0.0 -0.0 0.0
 0.0 -0.0 -0.0
 0.0 0.0 -0.0
 -0.0 -0.0 0.0
 -0.0 -0.0 -0.0
 0.0 0.0 -0.0
 -0.0 0.0 -0.0
 0.0 -0.0 0.0
 -0.0 -0.0 0.0
 0.0 -0.0 0.0
 307143.018028064 39942.5889463543 -226988.449188224
 327805.533738986 20357.0730866826 -198960.10058663
 352267.894864975 35510.0514611635 -148668.646636151
 363751.573457147 47765.8874319525 -113398.469148784
 369597.421491123 60306.7071401335 -84952.0282337482
 371606.196642964 75669.9573075412 -60323.23082881
 370521.055430707 92460.7869360705 -40263.5115418074
 367106.332173703 110044.295966964 -24066.4455852066
 361929.011167138 127826.306401443 -11127.7251647357
 355267.224128052 145741.841415556 -717.719410044875
 347207.181815907 163848.681500535 7535.41412209669
 337908.406147748 181893.986867683 13729.0420666355
 327689.107078573 199373.479021119 18057.2690366651
 316796.603373436 216004.778211423 20924.8149546809
 305336.867473972 231755.210383167 22691.8448222334
 293341.709771891 246681.338769335 23557.5552864144
 280834.251694092 260829.283482905 23584.0614232091
 267847.143679822 274220.254928372 22741.1391442771
 254413.489722556 286866.337187091 20916.0425523853
 240569.040819331 298767.911766941 17896.1308021714
 226399.036631943 309871.915515653 13374.310703307
 212119.87375735 320018.070649509 7042.27342070514
 198062.373408586 328976.730482622 -1267.69109881093
 184328.285064412 336662.349751924 -11727.9829777507
 170694.512566308 343084.897495996 -24741.3922387676
 156792.176314462 348130.219293408 -40958.0744334779
 142416.39609833 351360.249643244 -60988.0733668536
 126775.218641708 352257.438331538 -85432.6698543928
 110093.642388671 349632.765297817 -114421.673365656
 86672.9046002903 344481.730075612 -145863.44727951
 45589.3664081248 340456.141012082 -171660.204234024
 23121.6446165406 313230.597674911 -220925.286534712
 -0.0 0.0 -0.0
 0.0 0.0 0.0
 -0.0 -0.0 0.0
 -0.0 0.0 0.0
 0.0 -0.0 -0.0
 -0.0 -0.0 0.0
 -0.0 -0.0 -0.0
 -0.0 0.0 -0.0
 0.0 -0.0 0.0
 -0.0 -0.0 -0.0
 0.0 0.0 -0.0
 0.0 0.0 -0.0
 0.0 -0.0 -0.0
 0.0 0.0 -0.0
 0.0 -0.0 -0.0
 0.0 0.0 0.0
 -0.0 0.0 0.0
 317626.340628509 23049.270943185 -214565.232150807
 340438.119216883 11577.2785155415 -177267.745532697
 357519.632658915 9427.20415487556 -139810.014252402
 369992.288164142 20622.3091518095 -100679.824514695
 376015.947891065 35774.4201984793 -69196.804774833
 377857.360562132 52205.1955470128 -44208.9654585726
 376847.972844338 69762.8761429671 -23973.8706798454
 373691.789228141 88032.5064127962 -7792.59123474077
 368851.244405926 106672.786162906 5067.16808907449
 362621.061369953 125416.662350855 15252.1033205494
 355142.742679512 144173.303080607 23317.1825249418
 346476.46318812 162891.704715287 29603.2598137303
 336715.0986027 181390.129045156 34301.0707989696
 326017.504803356 199382.298886365 37620.2798046718
 314530.881450843 216654.701102352 39837.9856921327
 302347.367400191 233118.576181785 41204.3549294395
 289520.032529602 248758.242194502 41874.6666178897
 276094.147805133 263575.711510514 41903.0529852411
 262126.791642195 277566.653920683 41258.9109726007
 247697.403911498 290714.539215396 39837.8310690236
 232922.291961408 302983.861767725 37469.7933776075
 217975.343930728 314309.500003295 33945.3626576567
 203090.662350013 324600.135219654 29067.7670558828
 188503.137609852 333778.644146562 22680.0313695588
 174331.676445779 341836.47646394 14570.1731740668
 160556.874807982 348795.705458636 4364.15003255859
 147078.176958927 354615.587876676 -8473.17516155065
 133732.131820797 359123.370560832 -24538.1669179349
 120090.981543653 362015.887191479 -44482.0589996465
 105421.884585382 362778.057385277 -68806.302983311
 87331.2661302081 360892.042038574 -97909.0595875712
 63857.2026787418 354929.47422479 -131921.666122591
 43542.5913195842 339517.978778437 -174033.28654996
 15882.7557994967 316290.161166109 -217173.36857389
 0.0 -0.0 -0.0
 0.0 0.0 0.0
 0.0 -0.0 -0.0
 0.0 -0.0 0.0
 -0.0 -0.0 0.0
 -0.0 -0.0 0.0
 0.0 -0.0 -0.0
 -0.0 -0.0 0.0
 -0.0 -0.0 -0.0
 -0.0 0.0 -0.0
 0.0 -0.0 0.0
 0.0 0.0 -0.0
 -0.0 0.0 0.0
 -0.0 0.0 -0.0
 -0.0 -0.0 -0.0
 319507.534105188 1937.90721418321 -212995.728045544
 344490.474285844 -8129.93262997999 -169458.600613089
 361714.202467686 -8300.7044325454 -128646.546938071
 372793.145186864 -1706.31148931606 -92078.0071612503
 379170.507163964 11320.4444658517 -59645.4024558312
 381540.28213051 27765.9178496158 -33347.6673507893
 381065.142912675 45674.8055142149 -12616.219646998
 378552.620787703 64341.7820443002 3748.11661038139
 374455.944100509 83435.3397389237 16652.0272173294
 369024.202780985 102750.598716537 26822.6066080782
 362384.952947964 122145.037575718 34838.7093981427
 354585.843132299 141535.031326415 41142.6148608362
 345643.697897192 160835.081184371 46027.282826291
 335598.267781621 179891.407759412 49687.8664898389
 324528.458828867 198497.65746506 52306.3991404851
 312523.997526696 216472.027589487 54079.684182046
 299661.730564006 233695.960716597 55181.9280211533
 286007.237957879 250100.945698657 55725.9077659802
 271630.474572995 265640.23326941 55750.8004590314
 256622.08039471 280269.447566749 55228.1143487655
 241106.710958914 293938.08565743 54073.6139962959
 225253.46417827 306587.395345767 52163.645298109
 209277.793376368 318154.903164282 49358.5128629811
 193422.313282175 328589.929977132 45524.3521886464
 177911.432133428 337877.504291451 40525.4785291051
 162904.39129279 346050.230333364 34167.1974816658
 148486.811445154 353163.355560712 26140.2202735503
 134679.962784302 359250.580553437 16010.246607636
 121416.816074357 364284.916658635 3233.61552712114
 108458.353640611 368140.457621176 -12860.365004133
 95310.7814163603 370511.524420364 -33061.5368290819
 81091.201250881 370778.130984171 -58342.0488462116
 65337.9911365554 367645.985281808 -89573.3019398528
 49211.8017160672 358980.709334208 -127149.710568947
 28550.6478676694 343335.645301835 -169592.143601962
 -1937.90721418307 319507.534105188 -212995.728045544
 -0.0 -0.0 -0.0
 0.0 0.0 -0.0
 -0.0 0.0 -0.0
 0.0 0.0 0.0
 0.0 -0.0 -0.0
 0.0 0.0 0.0
 -0.0 0.0 -0.0
 -0.0 0.0 0.0
 0.0 -0.0 0.0
 -0.0 0.0 0.0
 -0.0 -0.0 0.0
 0.0 -0.0 -0.0
 -0.0 -0.0 0.0
 316290.161166109 -15882.7557994965 -217173.36857389
 343335.645301835 -28550.6478676692 -169592.143601962
 361913.450185388 -29428.1028300094 -124934.548219199
 373484.154997601 -22884.5837997735 -86266.3421621635
 380037.396060741 -11524.7724826968 -53802.948010246
 383039.058596512 3482.02734275985 -26924.9897879725
 383398.665877102 20782.3861923354 -5436.49039464023
 381813.404868098 39294.7800533416 11421.2137528975
 378726.344501248 58450.3719056183 24615.239280114
 374369.596038031 77978.4058606525 34968.1824199201
 368841.804492878 97735.4294967556 43122.0254570985
 362165.078271188 117626.919772815 49561.7173389331
 354321.843636326 137573.951137891 54639.1717585866
 345287.946060823 157477.196077615 58593.2335737738
 335061.69175687 177189.760222787 61591.0025021143
 323674.22537839 196528.908984405 63776.043771145
 311179.567030278 215315.786200226 65286.9763109549
 297642.971112646 233402.265752503 66242.3134320854
 283140.210134783 250671.620932749 66718.5121520191
 267766.388765213 267026.132917293 66739.8335843973
 251647.711523563 282375.999959172 66281.3995930326
 234951.066452336 296635.205719603 65280.5568343194
 217887.337002186 309724.792900519 63652.6593067899
 200703.433677966 321582.966837316 61306.8279230293
 183659.677315234 332179.825403026 58152.2701506929
 166998.068019022 341529.862779862 54083.2516356297
 150917.587121507 349691.990331997 48942.7603948615
 135566.742373504 356752.648466544 42487.7179234517
 121039.965599728 362800.270328493 34369.9080183339
 107359.296139313 367896.957414687 24120.7433029667
 94441.1766336415 372039.208648661 11121.6628312343
 82070.3737485459 375088.080205732 -5420.87081123798
 69909.7565915384 376653.199155783 -26476.2818202655
 57650.6914847438 375928.837702573 -53008.5536015002
 44880.5409787568 371608.126367383 -85727.1104095838
 29428.1028300095 361913.450185388 -124934.548219199
 8129.93262998008 344490.474285844 -169458.600613089
 -23049.2709431849 317626.340628509 -214565.232150807
 -0.0 0.0 -0.0
 -0.0 -0.0 0.0
 0.0 0.0 0.0
 0.0 0.0 0.0
 -0.0 0.0 -0.0
 -0.0 0.0 0.0
 -0.0 0.0 0.0
 -0.0 -0.0 0.0
 0.0 0.0 0.0
 0.0 -0.0 -0.0
 -0.0 -0.0 -0.0
 313230.597674911 -23121.6446165403 -220925.286534712
 339517.978778437 -43542.5913195839 -174033.28654996
 358980.709334208 -49211.8017160669 -127149.710568948
 371608.126367383 -44880.5409787566 -85727.1104095839
 378974.542424707 -34531.5228286438 -51399.1257232933
 382714.016440765 -20614.7739393646 -23685.706981355
 383972.159892741 -4362.14656636425 -1533.65727501526
 383433.85119378 13418.299928432 15950.8929448054
 381501.961599757 32144.2727731394 29647.9176911934
 378385.732007026 51468.8651291405 40388.0395145092
 374162.42949458 71212.3579939205 48859.7628285182
 368827.646632041 91278.0893271508 55592.0631804111
 362332.207156445 111595.913654571 60973.1392724742
 354609.046027134 132088.903052653 65275.9233260816
 345596.210557887 152648.921526646 68684.5397799253
 335255.750582996 173124.325396244 71327.0611838675
 323582.944724742 193329.343893817 73306.4981625127
 310605.262011466 213068.355508163 74714.436970613
 296378.735978772 232156.039829722 75625.5117682254
 280988.729882624 250424.275863655 76085.5816637685
 264555.825012908 267720.317628256 76105.4990179105
 247243.160232767 283904.511974032 75664.0456154788
 229260.465131878 298852.610173696 74717.8460602547
 210860.581167111 312463.682303138 73213.8139385713
 192325.82927455 324671.84565045 71098.298402896
 173945.414800783 335457.725120232 68316.2303332248
 155990.731704262 344854.108677132 64796.1059853872
 138697.798537202 352941.647546544 60424.4495884276
 122259.479726231 359835.255159732 55020.0759832408
 106820.554840262 365665.50615065 48312.5933397011
 92468.7123037385 370556.298546235 39919.5046637847
 79222.5725561759 374593.523584319 29316.8225813442
 67022.1505167311 377775.077019775 15812.100518778
 55722.5088246845 379932.707166858 -1462.88589630762
 45069.3772177009 380620.855228822 -23505.6546832645
 34531.522828644 378974.542424707 -51399.1257232933
 22884.5837997737 373484.1549976 -86266.3421621635
 8300.70443254549 361714.202467686 -128646.546938071
 -11577.2785155414 340438.119216883 -177267.745532697
 -39942.5889463542 307143.018028064 -226988.449188224
 -0.0 0.0 0.0
 -0.0 0.0 -0.0
 0.0 -0.0 0.0
 0.0 0.0 0.0
 0.0 0.0 0.0
 0.0 -0.0 -0.0
 0.0 -0.0 -0.0
 -0.0 0.0 0.0
 -0.0 -0.0 -0.0
 -0.0 0.0 -0.0
 340456.141012082 -45589.3664081245 -171660.204234025
 354929.47422479 -63857.2026787416 -131921.666122591
 367645.985281808 -65337.9911365552 -89573.3019398529
 375928.837702573 -57650.6914847435 -53008.5536015003
 380620.855228822 -45069.3772177006 -23505.6546832646
 382840.336379169 -29819.7631499992 -242.00570711834
 383358.241705434 -12960.7428079134 18013.2635129032
 382603.972195212 4976.73791701046 32333.1492457954
 380780.635993472 23688.9603542034 43599.7753405195
 377950.940221496 43005.278964782 52532.2069481984
 374091.10445159 62837.7466834413 59693.0746564224
 369125.881751649 83135.8854965529 65501.9691594957
 362953.0525742 103850.694346715 70257.4900688577
 355462.744487981 124909.045370784 74161.7668723693
 346554.906840138 146196.346928244 77345.4891371156
 336154.714501676 167549.946232301 79893.826018345
 324223.282078956 188766.566321901 81868.4725458407
 310762.994091893 209619.542009333 83318.7200504136
 295820.395115687 229876.074218967 84280.9844227934
 279489.914163177 249308.664885852 84773.6839702869
 261918.769305939 267702.015281937 84794.9839274229
 243310.385401603 284859.766937216 84326.5648310098
 223922.516470144 300614.071988487 83341.984258708
 204057.151442495 314837.900130235 81815.4972285745
 184041.873129054 327457.346667813 79726.2506858631
 164206.006173654 338459.901410556 77053.7648246621
 144857.897712259 347895.218770638 73763.8544743615
 126269.121127517 355867.502730848 69788.4628702668
 108666.557331881 362521.717221289 65004.49107996
 92228.7018925489 368026.726536281 59213.1328524718
 77082.5146933942 372556.164849393 52117.0793622818
 63299.6034478288 376264.307490212 43293.5458499145
 50890.2322683547 379251.32810548 32165.4222714796
 39789.2690485603 381509.807055291 17974.4593580987
 29819.7631499995 382840.33637917 -242.005707118329
 20614.7739393649 382714.016440765 -23685.7069813551
 11524.772482697 380037.396060741 -53802.948010246
 1706.31148931626 372793.145186864 -92078.0071612504
 -9427.20415487539 357519.632658915 -139810.014252402
 -20357.0730866824 327805.533738986 -198960.10058663
 -0.0 0.0 -0.0
 -0.0 -0.0 -0.0
 -0.0 -0.0 -0.0
 -0.0 -0.0 0.0
 0.0 -0.0 0.0
 -0.0 -0.0 0.0
 -0.0 -0.0 -0.0
 -0.0 0.0 0.0
 -0.0 -0.0 0.0
 312434.246641634 -78479.0824541468 -209002.093632169
 344481.730075611 -86672.9046002899 -145863.447279511
 360892.042038575 -87331.2661302077 -97909.0595875715
 370778.130984171 -81091.2012508806 -58342.0488462118
 376653.199155783 -69909.7565915381 -26476.2818202657
 379932.707166858 -55722.5088246842 -1462.88589630773
 381509.807055291 -39789.2690485599 17974.4593580987
 381891.856405488 -22757.122336986 33116.8143713929
 381319.995978604 -4913.80045983474 45021.2753253194
 379868.191776947 13622.473409525 54503.0741731121
 377509.267477184 32811.4251632921 62178.479778728
 374154.608347323 52646.3210089811 68503.2403370891
 369678.337939875 73123.9887497149 73802.4981104539
 363934.26153612 94220.6301181697 78296.3992805181
 356770.682383639 115872.51114512 82123.3301348417
 348045.562898261 137962.425149872 85361.9083291761
 337641.985675651 160314.558985699 88051.8692943228
 325482.31480235 182699.713678062 90211.2929341909
 311539.918633457 204848.807069492 91846.8580848837
 295848.7551799 226469.62101745 92957.1127709797
 278511.309184499 247263.184617624 93532.7118664235
 259703.876125788 266939.630040039 93558.1671439128
 239676.53063863 285234.978251514 93017.0298541536
 218744.886735543 301929.199201463 91899.0380614386
 197272.451438248 316863.577341756 90205.6165531251
 175645.456313986 329953.760401894 87949.9270772925
 154245.068541913 341195.020843962 85149.3780469878
 133423.148159637 350658.194037664 81811.334724572
 113485.954055972 358477.591287704 77915.048460302
 94686.3460801795 364834.199718649 73392.7965241655
 77221.9400553486 369937.405859424 68110.8487694011
 61235.9839064241 374006.557610005 61848.5985267727
 46818.2221205589 377251.107245994 54273.8994281928
 34002.5763539483 379845.506015148 44913.4318594122
 22757.1223369865 381891.856405488 33116.8143713929
 12960.7428079138 383358.241705434 18013.2635129031
 4362.14656636454 383972.159892741 -1533.65727501532
 -3482.02734275955 383039.058596512 -26924.9897879727
 -11320.4444658515 379170.507163964 -59645.4024558314
 -20622.3091518093 369992.288164142 -100679.824514695
 -35510.0514611634 352267.894864974 -148668.646636151
 -72129.8406235222 324699.487356869 -191894.577833278
 -0.0 0.0 -0.0
 0.0 0.0 0.0
 0.0 -0.0 0.0
 -0.0 -0.0 0.0
 -0.0 -0.0 0.0
 -0.0 0.0 -0.0
 -0.0 -0.0 -0.0
 296377.864731625 -81876.6281064671 -230026.90944113
 327465.737594528 -104891.081688671 -170938.736639336
 349632.765297817 -110093.642388671 -114421.673365656
 362778.057385277 -105421.884585381 -68806.3029833113
 370511.524420364 -95310.78141636 -33061.5368290821
 375088.080205732 -82070.3737485455 -5420.87081123817
 377775.077019775 -67022.1505167307 15812.1005187778
 379251.32810548 -50890.2322683543 32165.4222714796
 379845.506015148 -34002.5763539477 44913.4318594122
 379678.125651673 -16455.1327264912 55043.1604160423
 378745.225687212 1768.1960034146 63284.4965377495
 376966.212839 20726.2914259582 70163.3467100032
 374210.681080352 40483.6047545856 76048.957333111
 370314.359470217 61086.3555607049 81189.4841372591
 365091.053680106 82543.2962841302 85738.7121509329
 358344.899098386 104808.932538255 89777.6194291155
 349885.148251181 127770.368816059 93333.3589123288
 339543.808362835 151240.504707537 96396.6386253786
 327195.028487753 174959.881951576 98936.6112234971
 312774.567903096 198607.283481749 100911.925068507
 296297.631196699 221817.263200212 102278.128129101
 277872.908301894 244202.742671811 102993.530395905
 257709.729730343 265381.602142422 103025.72711044
 236114.840652471 285005.960908069 102359.094713301
 213476.577402578 302791.188252491 101001.223839742
 190237.283935403 318539.992623853 98985.094332818
 166858.510055359 332156.763775804 96364.5261498772
 143786.003618972 343649.32741186 93202.6015337626
 121421.343389259 353118.601168953 89555.0717605072
 100104.236931794 360739.684860298 85451.8666571776
 80105.5965975657 366739.260002464 80878.9748117119
 61628.6234254336 371373.390836767 75760.9223352532
 44814.0942561118 374907.69600246 69942.2364107058
 29746.1578002235 377599.377678072 63165.4658279117
 16455.1327264919 379678.125651673 55043.1604160422
 4913.80045983532 381319.995978604 45021.2753253192
 -4976.73791700998 382603.972195212 32333.1492457953
 -13418.2999284316 383433.85119378 15950.8929448053
 -20782.3861923351 383398.665877102 -5436.49039464041
 -27765.9178496156 381540.28213051 -33347.6673507895
 -35774.420198479 376015.947891065 -69196.8047748332
 -47765.8874319523 363751.573457147 -113398.469148785
 -69022.410156359 340650.716091984 -163245.203672959
 -99404.2785139594 304319.180864751 -212048.639634699
 0.0 0.0 0.0
 0.0 0.0 -0.0
 -0.0 0.0 -0.0
 -0.0 -0.0 0.0
 -0.0 0.0 0.0
 -0.0 -0.0 -0.0
 320928.098083845 -100872.483809372 -185164.515689195
 337544.385029885 -123328.542308355 -135313.926803168
 352257.438331538 -126775.218641708 -85432.6698543931
 362015.887191479 -120090.981543653 -44482.0589996467
 368140.457621176 -108458.353640611 -12860.3650041332
 372039.208648661 -94441.176633641 11121.6628312341
 374593.523584319 -79222.5725561754 29316.8225813441
 376264.307490212 -63299.6034478282 43293.5458499144
 377251.107245994 -46818.2221205582 54273.8994281928
 377599.377678072 -29746.1578002226 63165.4658279117
 377260.735464509 -11970.9972996121 70618.9259365369
 376124.277048662 6644.03960651918 77086.8662764842
 374032.510580293 26227.9147433771 82872.0551043444
 370790.46096466 46880.029028659 88162.8999970332
 366173.49229243 68651.5840250459 93058.7639785631
 359937.609994469 91527.6356832045 97588.9789766847
 351834.64345105 115410.75072116 101728.768230285
 341633.29478333 140109.159305709 105414.018869093
 329145.505840667 165332.832649403 108555.471686213
 314256.03088666 190700.118905562 111052.292640751
 296951.509078088 215756.27276246 112805.283652395
 277343.725317069 240003.919961001 113730.279304167
 255680.750354569 262943.700172662 113771.54493824
 232340.520584515 284120.532415232 112913.265627212
 207804.977117574 303167.950332751 111185.814635694
 182618.30645193 319841.743070988 108663.763683856
 157337.777881157 334036.125152035 105454.685741476
 132487.652602037 345780.363534434 101680.686966584
 108524.717632905 355219.091555773 97456.5680546446
 85819.3859384171 362583.04323905 92868.5617023442
 64651.4067496283 368157.531440707 87955.8278272606
 45216.0276787661 372254.125495095 82694.4792161816
 27635.4685578918 375188.023556091 76981.9969711087
 11970.997299613 377260.735464509 70618.9259365369
 -1768.19600341379 378745.225687212 63284.4965377494
 -13622.4734095243 379868.191776947 54503.074173112
 -23688.9603542028 380780.635993472 43599.7753405193
 -32144.2727731389 381501.961599757 29647.9176911932
 -39294.7800533412 381813.404868098 11421.2137528972
 -45674.8055142145 381065.142912675 -12616.2196469983
 -52205.1955470124 377857.360562132 -44208.9654585729
 -60306.7071401332 369597.421491123 -84952.0282337485
 -71295.3970496414 352115.761549809 -135600.357033941
 -82970.5229356152 319406.423665282 -196345.177799571
 -0.0 0.0 0.0
 0.0 -0.0 0.0
 0.0 -0.0 0.0
 -0.0 0.0 0.0
 0.0 -0.0 0.0
 286027.59635608 -113799.410279731 -229551.537443662
 320614.257448503 -135529.965830523 -162154.636944869
 339372.216031294 -144285.953522509 -107070.362855968
 351360.249643244 -142416.396098329 -60988.0733668539
 359123.370560832 -133732.131820796 -24538.1669179352
 364284.916658635 -121416.816074357 3233.61552712092
 367896.957414687 -107359.296139312 24120.7433029665
 370556.298546235 -92468.7123037378 39919.5046637845
 372556.164849393 -77082.5146933935 52117.0793622817
 374006.557610006 -61235.9839064234 61848.5985267726
 374907.696002461 -44814.0942561109 69942.2364107058
 375188.023556091 -27635.4685578908 76981.9969711087
 374721.254090933 -9499.8897637271 83365.0635877858
 373332.92204709 9782.68360623427 89346.6754683222
 370803.091090604 30370.5836811831 95072.0531203424
 366869.770624867 52369.9757191676 100597.997220776
 361236.68211471 75812.8289564226 105907.858350456
 353588.466837924 100633.816338213 110923.537305719
 343615.537550148 126649.33853424 115517.563179639
 331049.092723926 153543.768363864 119527.442051143
 315704.077638352 180868.927230608 122773.639373305
 297524.214310713 208062.331600001 125081.605633938
 276619.481165237 234487.242244466 126306.75304377
 253284.534105715 259492.487148882 126358.988188961
 227988.840866304 282483.136232316 125221.268899472
 201336.520689961 302987.375710522 122956.315805703
 174003.584209423 320704.065937036 119698.181998421
 146667.587823719 335520.953863191 115630.048865794
 119945.93115066 347502.811786258 110953.90665067
 94354.0913619851 356857.250190165 105859.380453355
 70287.2257769303 363890.073390813 100497.365041137
 48021.7436097855 368961.221156573 94960.6730353491
 27729.8786720193 372448.435953222 89270.4675961406
 9499.88976372833 374721.254090933 83365.0635877858
 -6644.03960651808 376124.277048662 77086.8662764842
 -20726.2914259572 376966.212839 70163.3467100031
 -32811.4251632912 377509.267477184 62178.4797787279
 -43005.2789647813 377950.940221496 52532.2069481982
 -51468.8651291398 378385.732007026 40388.039514509