# OOMMF OVF 2.0
#
# Segment count: 1
#
# Begin: Segment
# Begin: Header
#
# Title: Oxs_MinDriver::Magnetization
# Desc: Oxs vector field output
# Desc:  MIF source file: C:/Users/grl31/Documents/GitHub/phd-work/Skyrmions/stdprob3/drive-240/stdprob3.mif
# Desc:  Iteration: 2118, State id: 4796
# Desc:  Stage: 0, Stage iteration: 2118
# Desc:  Stage simulation time: -1 s
# Desc:  Total simulation time: -2 s
# meshunit: m
# meshtype: rectangular
# xbase: 3.1249999999999999e-09
# ybase: 3.1249999999999999e-09
# zbase: 3.1249999999999999e-09
# xnodes: 16
# ynodes: 16
# znodes: 16
# xstepsize: 6.2499999999999997e-09
# ystepsize: 6.2499999999999997e-09
# zstepsize: 6.2499999999999997e-09
# xmin: 0
# ymin: 0
# zmin: 0
# xmax: 9.9999999999999995e-08
# ymax: 9.9999999999999995e-08
# zmax: 9.9999999999999995e-08
# valuedim: 3
# valuelabels: Magnetization_x Magnetization_y Magnetization_z
# valueunits: A/m A/m A/m
#
# End: Header
#
# Begin: Data Text
 432469.569468316 -1141920.76262238 -317074.871749203
 512005.374999600 -1104589.08984218 -330579.596303379
 625098.910470555 -1039169.86447446 -347745.274325347
 750274.698479819 -946523.692530253 -364321.571168749
 873798.490978041 -827997.624952583 -377419.608865696
 986186.490982036 -686349.810425924 -384590.137226362
 1080667.28664135 -525725.632152812 -383823.144429429
 1152401.16641489 -351651.952733180 -373981.131480578
 1198338.97799813 -170856.168876278 -355445.205743816
 1217446.49904370 9445.40022680918 -330581.665099173
 1210798.72849934 182588.442923859 -303607.197697892
 1181338.57575746 343068.996017636 -279807.548714716
 1133675.88763388 486201.737999780 -264454.689280556
 1074504.97508979 607060.249973320 -261660.738989584
 1013934.99477479 699326.221790875 -272815.125690820
 967936.083813487 754288.935279744 -292741.132547709
 400141.479611449 -1162532.84582736 -282760.693141471
 472157.696740534 -1131255.66982070 -298122.709343242
 580695.552398641 -1073057.41585224 -320764.537671959
 705721.963909208 -986765.268986971 -346121.719191609
 833761.800867117 -871251.729054342 -370555.144281651
 954372.199740901 -726924.510483131 -390261.311609963
 1058614.99986691 -556612.037763389 -401331.225289812
 1138791.11965127 -366367.881688960 -400598.042917222
 1189274.84123210 -165507.479844958 -387016.869201690
 1207776.79363709 34948.6476785477 -362771.608172566
 1195831.93499121 224901.603167660 -333098.608623271
 1158044.93056455 396974.714315744 -304782.620742451
 1101012.40146809 546334.652466042 -284323.003373331
 1033118.39850561 669153.875735243 -276493.935153492
 965702.839823752 760866.632071029 -282930.069586434
 916026.164397483 814359.515259051 -298770.943977543
 342168.586020474 -1188262.96233193 -250002.444007761
 405466.620766423 -1164224.40390693 -267820.439307297
 506080.662771571 -1116516.61476949 -298030.942405859
 628558.887789461 -1040762.77406600 -336565.006526635
 761317.251758898 -931782.332459771 -379113.647880239
 893464.930618178 -785497.154358323 -419838.146396185
 1013063.14750741 -601381.094684387 -451213.108228859
 1107365.96775384 -385455.067806376 -465525.976806808
 1165608.45138406 -151646.929252683 -458158.900196462
 1182955.11859466 81326.2961176827 -430758.229021145
 1162146.95373780 296565.140695976 -391168.769408922
 1111382.31865321 483666.208058406 -349922.522690909
 1041062.61445153 638445.668992401 -316425.649173930
 962349.532830969 759778.686193789 -296932.914283026
 888148.662176278 846457.964069415 -293684.013621617
 836106.551689004 894867.642986074 -302798.888172043
 265108.042353601 -1212082.39212885 -228305.566050395
 319022.909816977 -1194892.15972206 -249011.125385219
 408720.127452374 -1158303.06295157 -287804.278445048
 524418.676059525 -1095209.94790842 -342125.200944577
 658282.317442512 -995900.389256053 -407916.947602219
 800719.420698013 -849959.594446245 -477458.404517888
 937413.162375125 -650637.589555800 -538030.408975032
 1049114.13412129 -402138.876731170 -573753.682626340
 1117114.66994927 -125022.798129172 -572689.745893054
 1132570.38291297 149078.311598944 -535359.146441091
 1100713.37822729 392552.546348152 -475270.436978774
 1035664.75164499 592014.998626474 -410446.335737541
 952954.630793189 746430.546418025 -355342.569843327
 866403.015939545 860014.475676500 -318230.021394415
 789284.095803654 936757.174898002 -301771.506785312
 737615.893424601 977665.179325539 -302725.984713474
 174354.297146654 -1230058.69086979 -219329.950077855
 217689.042072074 -1218647.76525389 -243019.620858880
 292915.856170939 -1192139.73273144 -290779.280151808
 395697.469910541 -1141769.88025531 -362400.998573569
 523023.893520071 -1053836.08833695 -455439.278768013
 668792.144646330 -910577.506665273 -561351.140137411
 818589.607493241 -695939.912211650 -661156.656182071
 947037.254420817 -409432.820120296 -725971.511470234
 1025426.21117234 -80392.8150383942 -730470.746607902
 1039528.46012736 239762.977535883 -673382.303084454
 998373.512103788 508919.022490210 -579483.554379338
 923496.408966509 713088.605178575 -479800.432168825
 835211.845003663 858691.931053572 -395750.896938993
 748372.993916689 958041.631739452 -337110.552711025
 674752.349128655 1021142.31332257 -305821.964885695
 627193.749051334 1053204.65513108 -298223.718842254
 73505.0148366299 -1239808.42300487 -221408.034991929
 104619.939017792 -1232569.08296228 -247744.939412265
 161154.481385260 -1213745.23536230 -303975.603764057
 243178.716691205 -1173926.63199460 -392822.867665795
 352335.925665993 -1096527.58597564 -514816.549460567
 487561.873558110 -956616.835177602 -662357.215576495
 637928.489320168 -726716.949743164 -810234.008412775
 775752.128333109 -398653.969361104 -911500.454754819
 863565.543254722 -12774.7099218884 -919587.293414031
 881107.280359822 352442.949970114 -831254.087768736
 840443.999080462 638800.072363210 -690751.607220245
 768603.037595621 836997.503992908 -547936.109256709
 687824.425587297 965559.956956015 -431440.563702065
 611694.177151806 1046150.88940050 -350639.389065280
 549272.181205086 1093978.83095891 -305057.075457912
 509848.442561018 1117041.75985808 -289519.780447234
 -35116.4262639984 -1239652.90847747 -231466.917784706
 -17933.5547819163 -1234449.75325647 -259541.182121226
 15619.0417763481 -1219576.32518354 -322395.818063381
 68475.1609196218 -1185596.03648500 -425702.503548010
 145422.202875517 -1114186.36661677 -573576.981995534
 250297.440711903 -974663.403160224 -760875.727456301
 379175.419935709 -728654.065137999 -957516.937288005
 510128.811196950 -359720.184471803 -1096320.85439862
 604823.150741205 78915.5919996833 -1104314.59131254
 637785.041489084 478685.617145821 -977568.284934329
 617882.807595539 768977.073013898 -786412.441518943
 570087.688761803 951306.957798535 -601302.361616246
 514043.191278262 1058137.58340429 -455690.556196583
 460776.009157309 1119060.03431286 -356285.755970852
 417012.901137755 1152461.98236310 -299133.833611883
 389311.231977415 1167548.42696824 -277158.557975679
 -149712.213612403 -1228242.46286873 -246081.564568306
 -147717.388289665 -1222487.31554263 -274324.201362562
 -140326.452476668 -1206669.57604739 -340303.470296572
 -123216.793122433 -1171435.85223913 -451779.920868958
 -90528.3991890304 -1097543.43232014 -615428.675014542
 -35238.0978071850 -951022.265703302 -828169.280714060
 47469.4204399499 -687232.750545400 -1056885.62844797
 150828.532170500 -286365.139194851 -1219342.11436174
 248966.907356616 185647.003568135 -1222742.85932342
 313507.999816160 598787.612773128 -1065230.28484909
 338890.551322290 879606.091526016 -838448.417550987
 337246.579325936 1041968.29588016 -626191.860401036
 321788.498016504 1128543.89807276 -463022.962266430
 301376.155084894 1173188.27898345 -352634.522021092
 281897.077540226 1195366.76895013 -288412.475948879
 268466.794739774 1204476.75530325 -262127.367848631
 -268466.766697107 -1204476.77384097 -262127.311388568
 -281897.054240339 -1195366.78985439 -288412.412081689
 -301376.136182125 -1173188.30345460 -352634.456762545
 -321788.486708388 -1128543.93000418 -463022.892297569
 -337246.578414916 -1041968.34247498 -626191.783359002
 -338890.561479272 -879606.165298121 -838448.336052229
 -313508.025991682 -598787.723597483 -1065230.21484874
 -248966.953206461 -185647.143476982 -1222742.82874564
 -150828.584043800 286365.000768344 -1219342.14045494
 -47469.4647749608 687232.646672516 -1056885.69399932
 35238.0665881457 951022.199914055 -828169.357591014
 90528.3838121728 1097543.39390278 -615428.745789216
 123216.792088380 1171435.82733026 -451779.985738055
 140326.458499025 1206669.55896226 -340303.528394727
 147717.401471570 1222487.30025442 -274324.262394153
 149712.233610263 1228242.44928389 -246081.620206572
 -389311.195639893 -1167548.45212344 -277158.503049316
 -417012.868514909 -1152462.01014135 -299133.772070079
 -460775.979657402 -1119060.06831214 -356285.687333844
 -514043.168243721 -1058137.62513703 -455690.485275126
 -570087.676214496 -951307.014904607 -601302.283165959
 -617882.804375480 -768977.152005616 -786412.366808519
 -637785.055367898 -478685.726811687 -977568.222179449
 -604823.190656543 -78915.7201112972 -1104314.56029625
 -510128.866241305 359720.059841067 -1096320.86967924
 -379175.476611424 728653.971423230 -957516.986159831
 -250297.487623581 974663.342382237 -760875.789879375
 -145422.234311051 1114186.33108620 -573577.043044443
 -68475.1754999692 1185596.01490601 -425702.561300957
 -15619.0489077180 1219576.31044326 -322395.873478191
 17933.5568998154 1234449.74176157 -259541.236647803
 35116.4371665197 1239652.89880568 -231466.967929230
 -509848.400413482 -1117041.79315595 -289519.726197894
 -549272.141914306 -1093978.86787964 -305057.013800060
 -611694.141106230 -1046150.93301284 -350639.321827464
 -687824.394036652 -965560.011354930 -431440.492257430
 -768603.015577577 -836997.571046411 -547936.037714638
 -840443.988677949 -638800.156463883 -690751.542101624
 -881107.287931473 -352443.053489807 -831254.035851724
 -863565.575285350 12774.5977467011 -919587.264893031
 -775752.178899130 398653.860690007 -911500.459247915
 -637928.546840865 726716.864882003 -810234.039238372
 -487561.926137630 956616.777921151 -662357.259565919
 -352335.967167194 1096527.55022540 -514816.597203317
 -243178.743686872 1173926.60951530 -392822.918132009
 -161154.499964851 1213745.22013517 -303975.654714426
 -104619.948841665 1232569.07298920 -247744.984881338
 -73505.0137221055 1239808.41529623 -221408.078527673
 -627193.706296457 -1053204.69713760 -298223.660410053
 -674752.308777221 -1021142.35814149 -305821.904264553
 -748372.956104631 -958041.684737623 -337110.486035761
 -835211.810446753 -858691.996133598 -395750.828660293
 -923496.383353307 -713088.681540303 -479800.367977586
 -998373.500088757 -508919.109881368 -579483.498330225
 -1039528.46696562 -239763.071841404 -673382.258949718
 -1025426.23751636 80392.7185679656 -730470.720243632
 -947037.298739778 409432.726266173 -725971.506587460
 -818589.660378619 695939.834889780 -661156.672093502
 -668792.196211204 910577.452563692 -561351.166462283
 -523023.938489032 1053836.05062299 -455439.314391851
 -395697.503109473 1141769.85560956 -362401.039972569
 -292915.882319132 1192139.71534353 -290779.325098600
 -217689.060576342 1218647.75395484 -243019.660943636
 -174354.306682082 1230058.68227608 -219329.990693481
 -737615.850545370 -977665.232102735 -302725.918746132
 -789284.053785720 -936757.230927929 -301771.442755560
 -866402.977549801 -860014.539473883 -318229.953501108
 -952954.599302729 -746430.617252163 -355342.505500373
 -1035664.73089755 -592015.079320679 -410446.271697997
 -1100713.37171319 -392552.630708598 -475270.382387208
 -1132570.39171542 -149078.399572610 -535359.103321697
 -1117114.69428179 125022.715178066 -572689.716537818
 -1049114.17402914 402138.794677731 -573753.667164965
 -937413.209900993 650637.519786788 -538030.410541789
 -800719.470917225 849959.540457329 -477458.416407709
 -658282.361000250 995900.350627286 -407916.971619640
 -524418.713312985 1095209.92042689 -342125.231815245
 -408720.159557815 1158303.04214860 -287804.316575160
 -319022.935536126 1194892.14453242 -249011.165323115
 -265108.062175984 1212082.37991427 -228305.607880327
 -836106.507226870 -894867.709184544 -302798.815305881
 -888148.620123716 -846458.032825364 -293683.942626606
 -962349.496753175 -759778.759212676 -296932.844372443
 -1041062.58714044 -638445.745905089 -316425.583844120
 -1111382.30485320 -483666.285980661 -349922.458815963
 -1162146.95304737 -296565.219646096 -391168.711604003
 -1182955.13028598 -81326.3748892049 -430758.182042324
 -1165608.47486127 151646.855279153 -458158.864952417
 -1107366.00330078 385454.994505740 -465525.952942690
 -1013063.19191584 601381.029603067 -451213.095264093
 -893464.976288339 785497.102846151 -419838.145581527
 -761317.294934752 931782.292317361 -379113.659838297
 -628558.929628784 1040762.74233593 -336565.026507900
 -506080.699822741 1116516.58958676 -298030.973832315
 -405466.652682770 1164224.38393381 -267820.477811379
 -342168.612429653 1188262.94594687 -250002.485740825
 -916026.123294093 -814359.590123937 -298770.865940644
 -965702.802460251 -760866.708439169 -282929.991744097
 -1033118.36716124 -669153.955639653 -276493.858891738
 -1101012.37952331 -546334.734179564 -284322.931337457
 -1158044.92259879 -396974.788604732 -304782.554248653
 -1195831.93872093 -224901.676990553 -333098.545389715
 -1207776.80790703 -34948.7207713335 -362771.553621996
 -1189274.86455678 165507.411668481 -387016.826682250
 -1138791.15236056 366367.814651348 -400598.011243018
 -1058615.04075769 556611.976716552 -401331.202096530
 -954372.244415695 726924.458661555 -390261.298885127
 -833761.847211252 871251.685071900 -370555.143417560
 -705722.009166848 986765.233448147 -346121.728232259
 -580695.593316989 1073057.38594354 -320764.563649425
 -472157.730978891 1131255.64657824 -298122.743313346
 -400141.510622279 1162532.82492523 -282760.735193642
 -967936.045928017 -754289.016186205 -292741.049347434
 -1013934.96265626 -699326.300372297 -272815.043628107
 -1074504.95001229 -607060.329298079 -261660.657934176
 -1133675.87152036 -486201.817553053 -264454.612097442
 -1181338.57112761 -343069.070357359 -279807.477114657
 -1210798.73564007 -182588.514148945 -303607.126385807
 -1217446.51484880 -9445.46731619527 -330581.604976217
 -1198339.00152410 170856.104000792 -355445.157613462
 -1152401.19709927 351651.890542223 -373981.095406176
 -1080667.32551404 525725.574375877 -383823.114119568
 -986186.536788635 686349.757392411 -384590.114411655
 -873798.540277420 827997.578179690 -377419.597340377
 -750274.748341703 946523.651434032 -364321.575254244
 -625098.951925492 1039169.83382142 -347745.291407628
 -512005.410782257 1104589.06305205 -330579.630398542
 -432469.605635349 1141920.73682780 -317074.915316877
 449632.957578233 -1134399.23666454 -320184.331648672
 531728.361956733 -1094954.13334710 -331496.343684009
 647092.577287020 -1025491.03237681 -348121.774460807
 772567.806896950 -928001.912342945 -365377.702320801
 894077.871399588 -804950.781695694 -379774.182692857
 1002463.69789570 -660032.966771057 -388551.731556600
 1091676.03365657 -498007.872176565 -389590.846541570
 1157792.71920737 -324575.623312076 -381727.802263515
 1198641.61625966 -146155.332014425 -365303.059955894
 1213776.45360603 30727.6021537605 -342566.732267459
 1204414.87836940 200255.514981331 -317540.486239068
 1173209.73162940 357694.721413955 -295267.408972964
 1124195.32932780 498928.501760612 -280721.646061414
 1063431.94712986 619377.824883819 -277548.256677546
 1000728.95552288 712837.229755418 -286276.216915861
 952936.047820818 770066.301875445 -300766.039303756
 416028.778894370 -1154827.07487769 -291279.785052209
 489378.701124091 -1121942.66643617 -305454.695552619
 599647.468217713 -1060337.42195758 -328111.103706330
 725001.028863216 -969702.962921632 -354399.637086777
 851363.833972721 -849841.083977547 -380130.484315702
 968352.540992393 -702078.364967464 -401159.266024282
 1067571.24606923 -530009.808793243 -413437.622947033
 1142227.84253617 -340064.957349866 -413788.365516414
 1187698.12643451 -141346.449095916 -401177.981338559
 1202395.02719564 55869.2445647167 -377722.460287880
 1187993.50771473 242419.051894064 -348502.309641408
 1148722.20391085 411711.325300761 -320125.778062703
 1090523.49236842 559432.661746440 -298903.062016485
 1021103.13864309 682074.384748276 -289261.723777010
 951460.532395867 775223.893588360 -292061.981472479
 899823.690912522 831202.856041233 -301609.960545763
 357008.652537404 -1181576.39537038 -260713.395965604
 420905.019028570 -1156276.95910015 -278230.102127033
 522821.297260911 -1105668.24308080 -309362.341425067
 645700.046428485 -1025844.05914103 -349663.906181720
 777091.997324922 -912290.892810613 -394211.599914729
 905777.273659491 -761855.497085286 -436684.282980124
 1020092.79440007 -575091.366772633 -469286.737076157
 1108272.97610878 -358816.972970080 -484283.823036170
 1160931.31021311 -126913.722997831 -477159.125240883
 1174256.90122253 102848.974368226 -449546.715394099
 1151124.05370438 314765.642013524 -409127.650629921
 1099142.69204857 499251.860186796 -366309.095621720
 1027892.33192752 652513.456070840 -330473.863611098
 947811.335678638 773622.420798975 -307752.258992787
 871481.729957567 861486.359368609 -299850.425864197
 817534.670344096 912017.138171918 -302342.906953395
 279674.963881585 -1206713.28697938 -239111.665387127
 333903.165209580 -1188392.40986352 -260348.972267518
 424689.534053746 -1149154.62901433 -301051.273372349
 540842.962613162 -1081998.57194338 -358214.197126887
 673426.963620133 -977585.204440480 -427051.195581264
 812063.684852915 -826436.980507619 -499103.115509720
 942374.157840073 -623376.530278345 -561143.545852840
 1046326.82483135 -374119.653901358 -597314.064058460
 1107423.19015925 -99344.5679799185 -596065.403818527
 1118479.04345632 170897.903700095 -557985.633129473
 1084710.74822714 410766.128515544 -496208.838357224
 1019138.28977100 607644.856103350 -428572.404726123
 936156.911951870 760556.093169716 -369748.693393380
 848809.081449113 873692.755497788 -328227.882970275
 770049.083358375 951138.013103530 -306447.907754892
 716742.158183127 993644.541786847 -300833.233169398
 189479.331115377 -1226037.15035303 -229084.962302746
 233048.512085544 -1213528.20280182 -254139.967219359
 309309.141223894 -1184484.82476365 -304750.694796438
 412631.723447058 -1129909.22332125 -380249.442836731
 538642.777900872 -1036143.23408256 -477305.549097338
 679878.355792556 -886366.882342055 -586232.549532173
 821350.068904882 -666860.649477563 -687190.198858556
 939279.245138497 -379867.988560905 -751667.640541816
 1008689.68822894 -54909.1880052065 -755698.038142327
 1018113.78109824 259789.548426933 -698214.258079092
 976069.738650331 524938.766400194 -602724.304919148
 901997.255888633 726865.267122589 -499617.118140619
 814616.194098605 871287.555557510 -410862.364742594
 727968.262468531 970167.354696770 -346968.217043251
 653512.753620456 1033615.31501344 -310015.954983018
 604745.128125002 1066826.22206921 -296166.461358406
 89877.6251426710 -1237259.55379590 -229478.190594310
 121219.232194240 -1228938.50716409 -258002.857105295
 178841.666883210 -1207685.41835019 -317900.958491351
 261635.397996593 -1163539.31832437 -411427.519919832
 369641.972184346 -1079579.31718207 -537980.242417253
 499787.402898400 -931775.659282801 -688154.127787611
 639753.296226534 -696064.841433065 -835319.631881712
 763657.169488143 -368961.793883122 -933940.229919914
 839828.431421071 9239.54359820022 -941356.610180156
 852401.412875585 366576.490272243 -854741.445716975
 812144.758846805 649121.232134592 -714571.163418094
 742662.932793590 846417.431870152 -568839.810667040
 664119.626326077 974904.928045589 -447275.009496273
 589291.597718031 1055521.55993219 -360775.664778272
 526937.921528088 1103681.15920549 -309473.353601611
 486795.538142861 1127620.85151421 -288185.270604724
 -17048.6553323621 -1238888.73400115 -237515.218534179
 357.461639995088 -1232647.77156536 -268568.007020708
 35119.2148152850 -1215562.27749918 -335744.577306511
 89203.7588143933 -1177392.77114255 -444227.850087782
 165769.197948128 -1099117.83483865 -596665.726408170
 266236.580965368 -950871.162420365 -785182.492387705
 384331.983405303 -698900.737856245 -977433.433065749
 499228.356715869 -333839.431975713 -1109446.57934840
 579598.669959625 92044.8197564772 -1116755.37332756
 606228.986139213 481737.864809541 -995974.134650252
 586699.565699209 769928.501570519 -809038.412559433
 541802.786672460 954114.420293753 -622627.371917125
 488725.707782937 1062892.41318663 -472182.519224641
 437551.281977660 1124903.76623342 -367001.121622984
 394597.470929711 1158984.95604480 -304296.136217105
 366611.447298523 1174867.22654184 -277186.719787450
 -129803.898067271 -1229718.17506265 -249987.177443309
 -127637.101235716 -1223010.97862662 -281961.606368397
 -118940.512578126 -1205385.31170109 -352773.065471078
 -99998.2962793132 -1166589.63112588 -469700.334479087
 -66255.2825344615 -1086505.19464994 -637703.795232492
 -12874.2305470328 -931960.927429034 -850195.574472363
 62068.7066886990 -663748.487928375 -1071043.81392254
 150895.101743342 -270495.216684653 -1222952.34450879
 232974.053849035 184643.145807813 -1226042.18110891
 287484.859712209 587563.096518292 -1078736.06316144
 310100.922043395 869560.154399545 -859797.643022722
 309712.702511152 1037298.91012452 -647795.063177133
 296744.665152568 1128230.37539181 -480196.058569510
 278579.002296423 1175299.39325070 -364162.747439945
 260319.809041821 1198722.05417693 -294700.635848032
 246905.873463090 1208681.14520616 -263963.652405993
 -246905.852222759 -1208681.16293670 -263963.591086145
 -260319.793547415 -1198722.07421474 -294700.568029149
 -278578.987079678 -1175299.41869231 -364162.676970227
 -296744.655705514 -1128230.41085298 -480195.981090719
 -309712.703160311 -1037298.96239342 -647794.979169812
 -310100.933234546 -869560.234271291 -859797.558207788
 -287484.884121427 -587563.214110200 -1078735.99260669
 -232974.095157313 -184643.290694923 -1226042.15143931
 -150895.148804836 270495.072581910 -1222952.37057501
 -62068.7473576636 663748.375574197 -1071043.88119396
 12874.2014009430 931960.852719268 -850195.656808488
 66255.2664433785 1086505.14850033 -637703.875532954
 99998.2943726998 1166589.60174120 -469700.407867414
 118940.515410096 1205385.29164730 -352773.133037781
 127637.111030272 1223010.96274581 -281961.670817785
 129803.912474980 1229718.16148819 -249987.236736693
 -366611.416381067 -1174867.25072854 -277186.658163025
 -394597.443387023 -1158984.98368753 -304296.066649224
 -437551.256274978 -1124903.80008047 -367001.048521186
 -488725.689700118 -1062892.45724227 -472182.438770839
 -541802.775821038 -954114.480141480 -622627.289649213
 -586699.563330619 -769928.586940942 -809038.333033571
 -606228.998984257 -481737.980400850 -995974.070921934
 -579598.705574995 -92044.9561072974 -1116755.34360483
 -499228.407187990 333839.295658615 -1109446.59765563
 -384332.036521941 698900.632575795 -977433.487459379
 -266236.626706076 950871.092941043 -785182.561018920
 -165769.228606324 1099117.79219783 -596665.796439174
 -89203.7744766042 1177392.74503856 -444227.916129375
 -35119.2222599252 1215562.25996386 -335744.640014333
 -357.461616904559 1232647.75918580 -268568.063839279
 17048.6604624089 1238888.72391413 -237515.270780259
 -486795.498636529 -1127620.88479603 -288185.207111657
 -526937.884840972 -1103681.19564504 -309473.286113391
 -589291.563376570 -1055521.60433056 -360775.590975312
 -664119.597912564 -974904.981613445 -447274.934925597
 -742662.913028482 -846417.499842759 -568839.735330555
 -812144.749676491 -649121.321039044 -714571.093079192
 -852401.420702772 -366576.597401217 -854741.391966362
 -839828.460698612 -9239.66606522634 -941356.582858247
 -763657.218356695 368961.674219772 -933940.237235559
 -639753.351843843 696064.745845697 -835319.668937758
 -499787.456006124 931775.592680901 -688154.179397347
 -369642.011916464 1079579.27440750 -537980.300954486
 -261635.425255104 1163539.29151842 -411427.578394227
 -178841.686321537 1207685.40063373 -317901.014859615
 -121219.244113884 1228938.49534708 -258002.907792649
 -89877.6295112135 1237259.54496766 -229478.236481822
 -604745.083354318 -1066826.26643490 -296166.392965693
 -653512.712003371 -1033615.36248413 -310015.884441042
 -727968.222932139 -970167.409665248 -346968.146295018
 -814616.161724014 -871287.620037555 -410862.292193238
 -901997.232956035 -726865.343532889 -499617.048377480
 -976069.728984087 -524938.855466385 -602724.243001329
 -1018113.78766342 -259789.649462291 -698214.210912998
 -1008689.71530863 54909.0828562261 -755698.009637074
 -939279.288757852 379867.885459294 -751667.638139479
 -821350.120202091 666860.564821538 -687190.219698202
 -679878.408050077 886366.819599442 -586232.583791976
 -538642.823102936 1036143.19118937 -477305.591199773
 -412631.759765013 1129909.19491441 -380249.487836659
 -309309.168357615 1184484.80546273 -304750.742274392
 -233048.531488362 1213528.18940959 -254140.013375230
 -189479.343479835 1226037.14046205 -229085.005011322
 -716742.112500511 -993644.597227989 -300833.158888588
 -770049.039736936 -951138.071304611 -306447.836726122
 -848809.043282403 -873692.819107662 -328227.812350922
 -936156.880910169 -760556.164744957 -369748.624760038
 -1019138.26948668 -607644.936909968 -428572.338391472
 -1084710.74131592 -410766.216941642 -496208.780265202
 -1118479.05279718 -170897.992924281 -557985.587078497
 -1107423.21475385 99344.4785283818 -596065.373033130
 -1046326.86358217 374119.565527609 -597314.051529582
 -942374.204718377 623376.454788978 -561143.550987700
 -812063.734139635 826436.921464109 -499103.133084809
 -673427.011461668 977585.159773296 -427051.222388814
 -540843.001982252 1081998.54158559 -358214.229382961
 -424689.567086108 1149154.60631706 -301051.313412610
 -333903.192877491 1188392.39265722 -260349.015322937
 -279674.985492412 1206713.27365636 -239111.707346858
 -817534.624865989 -912017.204711420 -302342.829209736
 -871481.687271526 -861486.427958655 -299850.352863499
 -947811.300135089 -773622.493493443 -307752.185721195
 -1027892.30653610 -652513.531178202 -330473.794289657
 -1099142.67803648 -499251.939495672 -366309.029574142
 -1151124.05238823 -314765.721253934 -409127.593368803
 -1174256.91247225 -102849.055785406 -449546.667381876
 -1160931.33307059 126913.645630087 -477159.090206585
 -1108273.01105713 358816.895114823 -484283.800742358
 -1020092.83632685 575091.297883719 -469286.730360047
 -905777.321428522 761855.439242403 -436684.284811683
 -777092.042772865 912290.848726215 -394211.612346023
 -645700.090366973 1025844.02479305 -349663.925813685
 -522821.336677924 1105668.21564025 -309362.372883578
 -420905.053036344 1156276.93727526 -278230.141380777
 -357008.682478094 1181576.37672323 -260713.439476780
 -899823.648727735 -831202.931355839 -301609.878841391
 -951460.495219339 -775223.968282561 -292061.904321946
 -1021103.10863126 -682074.462006751 -289261.647545484
 -1090523.47188027 -559432.739590223 -298902.991071898
 -1148722.19576531 -411711.402030655 -320125.708609977
 -1187993.51052080 -242419.125313441 -348502.249005220
 -1202395.03990088 -55869.3177372075 -377722.409020561
 -1187698.14775131 141346.378568407 -401177.943078446
 -1142227.87338931 340064.886943129 -413788.338211502
 -1067571.28558567 530009.744306409 -413437.603577807
 -968352.586596090 702078.308921710 -401159.254029179
 -851363.881028157 849841.036905943 -380130.484163346
 -725001.076923462 969702.922416745 -354399.649598017
 -599647.511611319 1060337.39041092 -328111.126348773
 -489378.740796958 1121942.63907343 -305454.732495466
 -416028.815057854 1154827.05140992 -291279.826442520
 -952936.010653680 -770066.381528733 -300765.953122437
 -1000728.92419538 -712837.305798449 -286276.137076971
 -1063431.92205284 -619377.902578085 -277548.179377804
 -1124195.31341201 -498928.579973811 -280721.570789877
 -1173209.72687408 -357694.794713333 -295267.339070862
 -1204414.88408152 -200255.585712735 -317540.419966832
 -1213776.46825087 -30727.6700165147 -342566.674290931
 -1198641.63776500 146155.266312958 -365303.015678731
 -1157792.74768168 324575.560156522 -381727.769599932
 -1091676.07136648 498007.810840395 -389590.819279353
 -1002463.74137281 660032.912086510 -388551.712278274
 -894077.922952172 804950.729130773 -379774.172739962
 -772567.856109403 928001.869902018 -365377.706057489
 -647092.623759820 1025490.99630533 -348121.794335391
 -531728.403752863 1094954.10300112 -331496.376876718
 -449633.002337492 1134399.20610196 -320184.377075423
 479001.701195753 -1121148.56113240 -324241.738585995
 562231.841966501 -1078699.30613325 -334443.707887528
 678276.306656201 -1004203.49316732 -350807.678163312
 802423.236421526 -900863.599909158 -368932.453070301
 920106.158689564 -772478.179202238 -385008.506811061
 1022550.91411318 -623822.667416820 -395960.021444357
 1104595.30067722 -460261.706277141 -399471.919383085
 1163371.53233491 -287537.469498671 -394256.657909501
 1197626.62324596 -111580.200805063 -380512.497823324
 1207446.75606018 61928.1669911779 -360259.162731239
 1194079.36242382 228089.602736194 -337192.882896593
 1159776.45754389 382920.848082692 -315974.086832346
 1107958.33060103 522765.535667501 -301154.384475807
 1044176.43958249 643178.825526976 -295915.515533610
 978288.536414429 737699.653154526 -300499.903784942
 928181.902179265 796225.084381559 -309924.833447426
 443599.211617424 -1142263.93826357 -300003.776166145
 517902.111182921 -1106651.07537802 -314086.344045546
 628957.495170167 -1040264.33875428 -337360.349929186
 753377.882576577 -943747.737430517 -365118.343908064
 876322.814976793 -818114.898016125 -392805.000622660
 987494.243532699 -665901.777213840 -415907.890057626
 1079260.72617420 -491622.462083513 -430177.952284679
 1146021.44761055 -302038.840604627 -432385.026685465
 1184366.08992149 -105832.158906899 -421456.937425579
 1193474.49361192 87729.1656949394 -399339.025770340