# OOMMF OVF 2.0
#
# Segment count: 1
#
# Begin: Segment
# Begin: Header
#
# Title: Oxs_MinDriver::Magnetization
# Desc: Oxs vector field output
# Desc:  MIF source file: C:/Users/grl31/Documents/GitHub/phd-work/Skyrmions/stdprob3/drive-163/stdprob3.mif
# Desc:  Iteration: 518, State id: 1096
# Desc:  Stage: 0, Stage iteration: 518
# Desc:  Stage simulation time: -1 s
# Desc:  Total simulation time: -2 s
# meshunit: m
# meshtype: rectangular
# xbase: 3.1249999999999999e-09
# ybase: 3.1249999999999999e-09
# zbase: 3.1249999999999999e-09
# xnodes: 16
# ynodes: 16
# znodes: 16
# xstepsize: 6.2499999999999997e-09
# ystepsize: 6.2499999999999997e-09
# zstepsize: 6.2499999999999997e-09
# xmin: 0
# ymin: 0
# zmin: 0
# xmax: 9.9999999999999995e-08
# ymax: 9.9999999999999995e-08
# zmax: 9.9999999999999995e-08
# valuedim: 3
# valuelabels: Magnetization_x Magnetization_y Magnetization_z
# valueunits: A/m A/m A/m
#
# End: Header
#
# Begin: Data Text
 502313.683655016 -1157225.02689179 -7786.60819446129
 609556.916110166 -1103917.34825226 -36827.7771378687
 745867.192855212 -1015102.35540283 -69273.1520639338
 880538.529459090 -898207.962224004 -97076.1847951276
 999357.420527882 -761182.662179483 -115910.015754324
 1096896.15035347 -610895.674787353 -123185.797821011
 1171836.90481919 -452199.296121059 -117743.348051358
 1224082.61690877 -288483.942817486 -99740.6268137567
 1253606.50999734 -122565.336003814 -70695.7383546479
 1260379.59983200 43207.5673108941 -33552.9637046325
 1244363.37667088 207490.791729789 7535.85207745512
 1205206.82924377 369801.706007123 47672.0871931497
 1142482.60725706 528804.976475631 81536.6168580753
 1057902.93034711 679450.645335341 103622.591336777
 960813.110541881 810208.237974181 109317.009877525
 877854.800672357 900562.234923599 99539.1424760296
 447945.271341040 -1179129.91741463 23390.2257349605
 539322.409932754 -1140469.45274674 -3193.18255445948
 668171.155796900 -1069444.68771135 -37212.8661345940
 806359.944227975 -967603.193853967 -71253.9859040320
 937808.236148631 -837871.990860586 -100178.191549192
 1053058.09232000 -684320.781096605 -119679.378665042
 1146241.18509767 -511555.009336334 -126459.673128434
 1213197.01234109 -324988.680024069 -118679.391731720
 1250983.74764639 -131321.395887815 -96663.2558195279
 1258420.09584160 62400.0031515841 -63517.9731071707
 1236103.78958260 250971.171132736 -24704.7274576837
 1185352.94564603 431636.103638286 13345.3813430782
 1107858.65390896 601857.161410903 44346.2640634265
 1007986.74788845 756027.656775609 62724.2312874141
 898405.567206408 883304.991710055 64723.7155267377
 809589.304508360 966088.452759590 52798.5832120885
 368067.129702908 -1205879.50158530 43939.1238830198
 442036.823881740 -1181420.84988467 19941.2313884825
 556756.156947072 -1131963.82998461 -15162.4611146031
 693081.969531673 -1052619.77441422 -56377.5215950463
 837105.151318332 -938618.947267688 -98989.2336840883
 976599.047302181 -786772.054173554 -137089.264710814
 1099160.78451380 -597151.740663017 -163721.713065458
 1191959.75662450 -375686.158805089 -172166.429912707
 1244106.20840912 -136068.433569281 -158853.877833772
 1250923.86884233 103463.387976020 -126626.350448926
 1215183.73680388 328310.380746034 -84203.3884158382
 1143448.10566337 531343.765964150 -41828.9725531299
 1043163.65255799 709433.417805910 -7953.02464764596
 924190.854487366 858652.296550081 11701.6678357725
 803698.038238215 972319.776069483 14599.5655821742
 713151.140238927 1040647.18752055 4279.39253192200
 278130.190239341 -1229583.78853592 48132.4751705862
 335475.402618036 -1215865.02845651 26036.8533748316
 431733.680825381 -1185346.34947602 -10463.8207078206
 558013.166722298 -1129874.20535953 -59623.9611789977
 707106.844518509 -1037978.12482772 -118956.940668277
 869000.833196082 -896142.535216894 -182525.448632532
 1026720.06195199 -693015.872555252 -239006.999250535
 1154766.51592610 -428911.973356989 -272209.925840085
 1226138.94595586 -126732.447397461 -268461.548281792
 1228478.95090713 173027.104754822 -229020.783155669
 1170757.86030923 437922.433743362 -170585.478477531
 1071382.24681945 656622.701426015 -111964.905622568
 947514.905348810 830340.191848495 -65575.1543024723
 814783.333099280 962441.837138567 -37192.2189163581
 691740.302386380 1054642.04934982 -27837.6133416939
 605480.049518789 1106269.85101456 -33322.0240967875
 185905.806989343 -1247190.80261312 38775.8136449052
 227272.360110535 -1240797.86990816 17814.3560119216
 302096.975529995 -1224681.12827885 -21047.1454650363
 409964.037274632 -1190431.65012893 -79695.7052276948
 552136.902817418 -1123022.22515819 -159735.259936235
 726181.789269728 -998790.116581719 -258123.503134927
 916765.705937261 -788305.804559260 -360088.919344218
 1085474.17465856 -475161.085703679 -433032.550394504
 1178943.40264210 -92044.1126831307 -439510.825356996
 1171213.28972263 279310.303320517 -376556.257888591
 1085430.60974248 578253.361802548 -281092.283631336
 959753.607402781 796509.049859801 -189725.531986972
 821359.338026041 949983.820349228 -120204.034171330
 687346.582243171 1055093.61253800 -76691.4309365335
 572509.852884285 1122722.12330132 -57244.5029601239
 496240.604316117 1158501.45404214 -56294.5337414427
 93794.6356690171 -1257909.77561729 20371.3928129576
 119216.771859569 -1255920.69502451 -5.95630600514899
 169789.831563013 -1249380.12496793 -42073.1191128785
 250745.447395653 -1231345.81495817 -111640.653501793
 370448.125331648 -1186404.10988287 -216247.324631433
 536506.836090439 -1083566.04586441 -359992.319358274
 743326.781783904 -871520.372559800 -528646.353070713
 947054.130245824 -502742.487128298 -664746.490731115
 1062008.30628249 -18715.6030520817 -680688.999843798
 1043136.92447896 427917.450414627 -565951.803016984
 936292.624428501 742342.424698245 -404763.235549964
 800886.564959011 938311.264038634 -264011.576953230
 667423.664346222 1057926.82362527 -163969.262496874
 548313.905821174 1131543.41525191 -102522.148836848
 451778.177326606 1175686.05939301 -72167.8540580499
 389751.194246622 1198102.69554289 -64756.2231383915
 1485.63323744988 -1261562.58199053 -2659.98763632616
 10336.9922360012 -1261322.40687767 -22546.9159485427
 33441.0668683399 -1259301.59525106 -67754.1007156515
 78564.6066332372 -1250397.87589532 -147926.283871338
 157115.206510220 -1220588.04190048 -277541.122667918
 283684.764728964 -1135113.00754982 -471795.342570078
 466673.987500365 -921816.754842856 -723891.352897967
 674326.842514816 -491630.830315433 -946114.087764425
 805104.266518841 104223.321833073 -965657.315064818
 795096.652823179 610912.830800097 -765608.422597441
 702849.442626580 911550.696054056 -516359.778102271
 593181.422445753 1066400.88111813 -320116.215982038
 490942.301139635 1146439.45857843 -190267.326898432
 402680.418264851 1190226.05847221 -112959.467946292
 332243.864056422 1214811.03599139 -73468.3098303667
 287118.746786912 1226961.20216879 -60650.3465363418
 -92146.4677046913 -1257922.08190306 -26277.2766698319
 -100835.893687445 -1256719.74051950 -45133.6598539541
 -108303.155417223 -1253545.36372372 -91890.5791275858
 -106910.273845789 -1244224.12537598 -178957.956228659
 -87332.6793679911 -1215554.32599636 -326113.652864930
 -36128.1633379839 -1130705.73285013 -558344.635894908
 63746.7715942860 -903401.480316669 -878266.215558763
 213393.594548487 -413698.872307268 -1172546.73586016
 350947.069891277 266310.802627207 -1182143.87510900
 402531.323615961 790059.443614515 -897398.484499756
 387470.795273377 1052692.38261603 -577282.046586725
 347036.320246413 1163349.11773282 -343123.962466991
 300321.712105677 1209666.55875034 -195097.710898896
 254679.728459329 1230816.99959120 -108522.718120035
 215062.958178510 1241482.16321966 -63398.6856796629
 188107.791291414 1246586.67574840 -46760.5562517869
 -188107.801492887 -1246586.67431614 -46760.5533959910
 -215062.970245692 -1241482.16103496 -63398.6875259531
 -254679.741136316 -1230816.99720373 -108522.715447397
 -300321.726330848 -1209666.55670232 -195097.701699869
 -347036.336409590 -1163349.11715447 -343123.948080408
 -387470.805262465 -1052692.38997194 -577282.026468320
 -402531.332891378 -790059.465887819 -897398.460730070
 -350947.086677450 -266310.851158061 -1182143.85919271
 -213393.609733683 413698.828387599 -1172546.74859236
 -63746.7846944157 903401.457952167 -878266.237612478
 36128.1514517010 1130705.72504528 -558344.652469650
 87332.6646481266 1215554.32508149 -326113.660216952
 106910.261751570 1244224.12549142 -178957.962651214
 108303.144983396 1253545.36445962 -91890.5813859505
 100835.881737878 1256719.74134843 -45133.6634701853
 92146.4583098625 1257922.08266264 -26277.2732526017
 -287118.760732943 -1226961.19917346 -60650.3411115509
 -332243.881327880 -1214811.03157463 -73468.3047560447
 -402680.431007917 -1190226.05481754 -112959.461027893
 -490942.312929267 -1146439.45482762 -190267.319078086
 -593181.431087926 -1066400.87985982 -320116.204159727
 -702849.449703577 -911550.703329812 -516359.755625142
 -795096.655645432 -610912.853908201 -765608.401227508
 -805104.277815588 -104223.358568399 -965657.301681460
 -674326.853591174 491630.792739347 -946114.099395661
 -466673.998713425 921816.737525774 -723891.367721092
 -283684.766733752 1135113.00296468 -471795.352396232
 -157115.210520838 1220588.04035874 -277541.127177883
 -78564.6099910072 1250397.87524331 -147926.287599344
 -33441.0724103051 1259301.59491031 -67754.1043136441
 -10337.0018426828 1261322.40676125 -22546.9180566778
 -1485.64470042143 1261562.58197538 -2659.98841703313
 -389751.215278374 -1198102.68928079 -64756.2124132635
 -451778.197801058 -1175686.05178790 -72167.8497806261
 -548313.921483594 -1131543.40833009 -102522.141466944
 -667423.673256591 -1057926.81940532 -163969.253454968
 -800886.564591125 -938311.265412721 -264011.573185644
 -936292.620360883 -742342.438881302 -404763.218947157
 -1043136.92076064 -427917.474340689 -565951.791779877
 -1062008.30647867 18715.5735327366 -680689.000349353
 -947054.135127708 502742.470031479 -664746.496706159
 -743326.782071262 871520.366053556 -528646.363392781
 -536506.829993969 1083566.04717424 -359992.324501477
 -370448.119483991 1186404.11130908 -216247.326824251
 -250745.439457462 1231345.81623249 -111640.657275804
 -169789.832445305 1249380.12458022 -42073.1270653557
 -119216.772302329 1255920.69498245 -5.96333491380414
 -93794.6416339901 1257909.77521345 20371.3902850027
 -496240.623594921 -1158501.44653785 -56294.5182303642
 -572509.870876303 -1122722.11467819 -57244.4921427800
 -687346.593737607 -1055093.60603221 -76691.4174220409
 -821359.346122116 -949983.814408034 -120204.025804323
 -959753.602623794 -796509.057497966 -189725.524095481
 -1085430.60153036 -578253.381002939 -281092.275843820
 -1171213.28521272 -279310.325319224 -376556.255598340
 -1178943.40145141 92044.0895695506 -439510.833391461
 -1085474.17516796 475161.074311830 -433032.561617725
 -916765.700116555 788305.806398360 -360088.930137247
 -726181.773605176 998790.126111683 -258123.510328687
 -552136.883084249 1123022.23485240 -159735.259990020
 -409964.020468636 1190431.65554549 -79695.7107714072
 -302096.963719474 1224681.13116014 -21047.1473306672
 -227272.347864387 1240797.87221829 17814.3513420125
 -185905.800216069 1247190.80389046 38775.8050341704
 -605480.071447958 -1106269.83956631 -33322.0057058044
 -691740.318154852 -1054642.03946688 -27837.5959290642
 -814783.336823441 -962441.834450562 -37192.2068886916
 -947514.904640011 -830340.193171983 -65575.1477855743
 -1071382.24319562 -656622.708710506 -111964.897578456
 -1170757.85388523 -437922.451603061 -170585.476717619
 -1228478.94632135 -173027.130036299 -229020.788653657
 -1226138.94552205 126732.430449741 -268461.558263623
 -1154766.51739044 428911.963498557 -272209.935161684
 -1026720.05376929 693015.878685511 -239007.016626474
 -869000.811840678 896142.553545163 -182525.460319241
 -707106.820392929 1037978.14084819 -118956.944286964
 -558013.140917658 1129874.21777341 -59623.9674382516
 -431733.654541352 1185346.35896866 -10463.8298467820
 -335475.374918679 1215865.03628201 26036.8448368993
 -278130.164153676 1229583.79495116 48132.4620219776
 -713151.168089550 -1040647.16835895 4279.41093709460
 -803698.053883965 -972319.762849587 14599.5847270829
 -924190.858603699 -858652.292009789 11701.6758905666
 -1043163.64958685 -709433.422222985 -7953.02034264281
 -1143448.09902264 -531343.780029123 -41828.9754217579
 -1215183.73128511 -328310.399821426 -84203.3936848753
 -1250923.86636637 -103463.413179447 -126626.354315490
 -1244106.20938652 136068.413341417 -158853.887505497
 -1191959.75875121 375686.148958173 -172166.436675944
 -1099160.77615851 597151.751505427 -163721.729613288
 -976599.026493655 786772.077378467 -137089.279771147
 -837105.125146307 938618.969435646 -98989.2448112706
 -693081.937331809 1052619.79493971 -56377.5342173822
 -556756.119667812 1131963.84810046 -15162.4775344901
 -442036.773231695 1181420.86914165 19941.2132643691
 -368067.077881874 1205879.51815347 43939.1032727544
 -809589.329812976 -966088.430430814 52798.6037661617
 -898405.582409175 -883304.975290190 64723.7285899162
 -1007986.75360918 -756027.649284117 62724.2296510141
 -1107858.65261936 -601857.164108157 44346.2596737415
 -1185352.94280041 -431636.111680570 13345.3739792271
 -1236103.78593881 -250971.188483106 -24704.7335154949
 -1258420.09435201 -62400.0282465828 -63517.9779658480
 -1250983.74881805 131321.378987324 -96663.2636162924
 -1213197.01342637 324988.673193978 -118679.399340834
 -1146241.17756200 511555.021708820 -126459.691383127
 -1053058.07118353 684320.810660520 -119679.395599714
 -937808.203587874 837872.024227927 -100178.217285165
 -806359.903506456 967603.226215988 -71254.0072727484
 -668171.102700633 1069444.72005761 -37212.8899128290
 -539322.340810367 1140469.48535427 -3193.21116454573
 -447945.198635846 1179129.94563815 23390.1953267311
 -877854.823747581 -900562.210816858 99539.1570725286
 -960813.126834875 -810208.217779603 109317.016347609
 -1057902.93503571 -679450.638940421 103622.585401259
 -1142482.60614220 -528804.980842084 81536.6041608229
 -1205206.82864313 -369801.709366610 47672.0763179356
 -1244363.37403784 -207490.807865063 7535.84259579015
 -1260379.59906964 -43207.5892964291 -33552.9640299029
 -1253606.51085053 122565.321027852 -70695.7491894101
 -1224082.61728938 288483.938833989 -99740.6336643942
 -1171836.89710150 452199.311621613 -117743.365330811
 -1096896.13100876 610895.704354967 -123185.823444191
 -999357.387152361 761182.701314868 -115910.046510037
 -880538.482045988 898208.005584113 -97076.2136659134
 -745867.131004748 1015102.39881392 -69273.1818809891
 -609556.835205953 1103917.39167621 -36827.8145896488
 -502313.593183845 1157225.06589457 -7786.64799449712
 513641.725699796 -1152090.50439075 20225.6824795986
 627778.063543729 -1094267.36818521 -4802.16380988397
 769317.814884961 -999108.107955538 -38503.4964268035
 905050.997737884 -876043.467665303 -70568.8683029958
 1021308.20301403 -734501.752704314 -94795.3619619964
 1114037.67643676 -582132.071905961 -107664.930487165
 1183316.27468349 -423946.029169990 -107618.722066127
 1230202.82132957 -263059.032248124 -94606.5265422806
 1255514.49696854 -101692.315405259 -69938.9148351160
 1259680.49619617 58631.1594615383 -36288.6423293476
 1242674.97639002 217490.320271584 2508.89640906369
 1203719.20688559 375306.576185905 41886.4627929273
 1141523.92952873 531560.562462651 76915.0028708817
 1056505.71908429 681757.435541829 102722.419873050
 956681.476945549 814174.173337450 115889.594263328
 869430.641360609 906478.397195247 118053.827555782
 457343.577830925 -1175191.27682950 36218.0286545461
 554067.360651726 -1133312.91376270 12674.0000823605
 688141.741600904 -1057126.47137161 -22226.0637727003
 828595.305792670 -949439.957925659 -59523.2427831954
 959029.198511224 -814396.923845805 -92574.7144330580
 1070609.58090238 -657143.016273019 -116222.254162329
 1158523.65135702 -483023.423485080 -126731.024339396
 1219854.15300780 -297690.187770761 -122007.493268227
 1252824.38314095 -107453.022222761 -102148.636513891
 1256978.55704089 81581.7846459799 -69991.0742332715
 1232966.70643269 265326.740179495 -30728.6949477328
 1181573.94536731 441977.665109628 9390.74503612209
 1103579.35616052 609678.239391561 44209.5011019766
 1002217.34534612 763168.738655446 68434.6399521192
 889274.924457883 891338.205834420 79093.2517302133
 796665.934593738 975008.477295866 78938.5126413983
 375665.206474048 -1203383.96899721 47875.9514191129
 453865.231870431 -1176815.86478157 25694.4082739841
 573611.582912616 -1123565.75285171 -10917.0456717729
 713354.623238729 -1039020.64943883 -55773.6717690561
 858178.138066527 -918960.486734209 -102914.226834038
 995418.740625041 -761267.963671646 -145471.815891038
 1112932.91778454 -567488.617071189 -175745.329739281
 1199104.40367870 -344841.130336447 -186501.085320125
 1244917.42344838 -107227.550034104 -173874.357589843
 1247138.66233665 128276.424106496 -140498.209392732
 1208710.45970860 348631.679572859 -94996.8815708619
 1135443.24230769 547752.997145864 -47798.8340285299
 1033813.29470333 722993.687724091 -7722.05443633316
 912829.682154955 870585.212840358 19307.7569786427
 789247.527218433 983700.427754227 31164.7258081203
 696012.889815102 1051718.28414243 31688.1512663712
 285291.038118671 -1227939.54475250 48196.7729328941
 346314.229731738 -1212809.75929408 26615.2769155301
 447369.521315107 -1179513.07042611 -12603.9284043650
 577746.300561481 -1119505.64800162 -66826.2463329716
 728956.988048979 -1021080.38146661 -132536.768775775
 889562.763936643 -871310.465095796 -202597.120786310
 1041637.58283337 -660844.411905440 -264244.659740498
 1160644.75606160 -392930.875690115 -300097.497615445
 1222883.22405942 -91896.1384364876 -296076.258712960
 1218972.05363332 203563.304700568 -253413.780918311
 1158019.49617523 463485.195931141 -189001.985570761
 1057059.03348674 677614.068781330 -122534.911076966
 932116.505825940 847431.552268517 -67587.0897846998
 798146.194186583 976511.050454415 -30630.8988579095
 673349.723164029 1066768.46748638 -12434.5490728707
 585729.860620722 1117319.01284664 -8257.41046572572
 193956.177052346 -1245989.48282434 37955.7768109401
 238716.638640246 -1238669.19599441 16199.3904149839
 318177.911325850 -1220490.52433876 -26741.8709624595
 430506.827720281 -1182243.49962452 -92269.2245590837
 575513.125921937 -1107917.08336295 -181256.197695528
 748357.448613784 -973596.716125966 -289171.219819602
 931048.987772487 -752174.510629466 -398661.157935038
 1085668.33694792 -432916.738865565 -474822.904120783
 1165396.56896419 -52091.4421952141 -480298.604636182
 1150416.43600734 312916.908188075 -412522.076079750
 1062751.35021737 605880.249438175 -308250.096303052
 937335.468116427 818879.729807467 -205882.586054194
 799767.586357195 967559.068086615 -125501.746978686
 666498.246369659 1068683.36657262 -72424.9992483838
 551826.753482428 1133606.96761170 -44406.1712176017
 475498.712766489 1168000.15392107 -35014.9327677866
 103671.107313522 -1257132.38766425 20491.2740680854
 132298.817419557 -1254608.60811785 -1922.04706998238
 187451.100818231 -1246587.76243004 -49299.7594381267
 273188.658957905 -1225023.38270509 -127417.029323108
 396194.060619772 -1172752.15325618 -243376.425073521
 560519.027154948 -1057338.40590310 -399253.486545222
 755320.006138789 -830057.800315326 -576233.604869706
 936089.658670325 -454307.163503351 -713365.672736618
 1030431.77434308 21194.7410575940 -727537.333952441
 1005480.65578465 457011.795936025 -609670.648905740
 901270.553968425 765743.774357732 -439200.741689693
 770144.480499332 957613.679935298 -285312.022312670
 640639.608927563 1072996.01690476 -172655.350622625
 524757.899518551 1142797.18774154 -100961.207906088
 430302.251548400 1184271.19478847 -62379.0062892117
 369327.495619395 1205351.48658427 -47690.9392604437
 13716.5905518279 -1261491.62969545 -392.773362627281
 25600.7495957537 -1261088.50732333 -23448.0113463963
 53315.1017103886 -1258210.52842426 -74921.2720854707
 103711.291746337 -1246447.11742664 -164811.960555318
 186467.758163184 -1209286.68133368 -307253.850152485
 311840.656944655 -1109025.29380720 -514167.028592003
 480081.136873863 -876252.985969439 -770228.691699092
 655521.632050251 -441766.047411960 -983200.681543266
 757475.408215616 131172.442772409 -1000287.07235706
 742986.907187368 622307.991434456 -807621.601038455
 658174.491514079 922494.511811176 -554400.257320826
 556634.125889105 1078202.21597462 -345235.951607067
 461130.068195695 1156763.72306280 -202005.396290994
 378111.667581459 1198145.04671525 -114146.593420208
 311217.153243203 1220749.47638573 -66813.3994802863
 267987.535592420 1231847.15416278 -47798.5404287840
 -77386.5044016839 -1259015.16090898 -21013.9110298827
 -83262.6686703354 -1258043.89570795 -44071.7074416495
 -86111.6081372663 -1254821.06278809 -97766.6724724583
 -78833.5229096539 -1243884.85976479 -195154.201165491
 -53339.4877140896 -1209238.17532679 -355594.383113241
 421.282026681085 -1110183.18178913 -599201.599057415
 91492.1738237628 -863525.665170364 -915151.374713515
 212041.075702657 -377794.033166581 -1184845.84720441
 314892.537522591 262911.844549659 -1193008.58451523
 354002.620115868 772913.973666425 -932113.493723393
 342491.434490799 1046149.10850229 -616296.268850661
 309584.757453518 1165414.72722454 -370830.449720029
 270246.092296000 1214358.33168456 -209404.686638084
 230705.923903605 1235199.41087213 -112279.218806876
 195444.927468028 1244902.88329685 -59728.7401940411
 170953.993763709 1249354.86741891 -37902.2188251008
 -170954.003479883 -1249354.86604055 -37902.2204354962
 -195444.939114130 -1244902.88147971 -59728.7399595044
 -230705.936053997 -1235199.40887094 -112279.215856182
 -270246.104405995 -1214358.33011916 -209404.680087481
 -309584.769797333 -1165414.72785811 -370830.437423751
 -342491.443789044 -1046149.11495995 -616296.252721670
 -354002.625245239 -772913.995566321 -932113.473615814
 -314892.543478951 -262911.881968611 -1193008.57469678
 -212041.076585187 377793.993524717 -1184845.85968648
 -91492.1838109438 863525.645907350 -915151.391891393
 -421.286401390683 1110183.17462964 -599201.612319231
 53339.4785097172 1209238.17381601 -355594.389631497
 78833.5119119460 1243884.85937582 -195154.208087295
 86111.5950891895 1254821.06336835 -97766.6765174954
 83262.6603534829 1258043.89637630 -44071.7040758014
 77386.4928451790 1259015.16161643 -21013.9112028290
 -267987.550342970 -1231847.15117249 -47798.5347929166
 -311217.167362662 -1220749.47269747 -66813.4011000671
 -378111.681127291 -1198145.04251955 -114146.592589840
 -461130.082575988 -1156763.71826126 -202005.390959773
 -556634.130558214 -1078202.21557328 -345235.945332341
 -658174.492686837 -922494.520235830 -554400.241910341
 -742986.906816271 -622308.012888106 -807621.584848870
 -757475.411869384 -131172.476266983 -1000287.06519791
 -655521.632033094 441766.018918434 -983200.694357251
 -480081.138465449 876252.971875351 -770228.706741243
 -311840.657531791 1109025.29017240 -514167.036075937
 -186467.762124346 1209286.67953931 -307253.854810777
 -103711.298475973 1246447.11651191 -164811.963238459
 -53315.1116395122 1258210.52783219 -74921.2749628664
 -25600.7574277798 1261088.50710756 -23448.0144000384
 -13716.6040784486 1261491.62954826 -392.773714041679
 -369327.513908679 -1205351.48109814 -47690.9362824814
 -430302.269205101 -1184271.18877247 -62378.9987041763
 -524757.911480343 -1142797.18277597 -100961.201939407
 -640639.618403354 -1072996.01153550 -172655.348830746
 -770144.482621114 -957613.679616462 -285312.017655461
 -901270.551832309 -765743.783070491 -439200.730882509
 -1005480.65076079 -457011.815368986 -609670.642624159
 -1030431.77224776 -21194.7627600892 -727537.336287865
 -936089.656258232 454307.144711918 -713365.687869133
 -755320.005419989 830057.792937597 -576233.616439432
 -560519.018290538 1057338.40715370 -399253.495678178
 -396194.053363610 1172752.15562379 -243376.425477103
 -273188.656955827 1225023.38293641 -127417.031391625
 -187451.103857280 1246587.76176696 -49299.7646492949
 -132298.820493291 1254608.60779040 -1922.04924036808
 -103671.112377731 1257132.38731663 20491.2697727847
 -475498.735516167 -1168000.14496241 -35014.9226654909
 -551826.770736705 -1133606.95962516 -44406.1606834687
 -666498.256766209 -1068683.36037583 -72424.9950112649
 -799767.589806762 -967559.065858596 -125501.742173077
 -937335.465975574 -818879.731477981 -205882.589156678
 -1062751.34537504 -605880.260836209 -308250.090594553
 -1150416.42892102 -312916.928783197 -412522.080219305
 -1165396.56598814 52091.4243964521 -480298.613787660
 -1085668.33635010 432916.730686374 -474822.912945012
 -931048.978622283 752174.514021468 -398661.172904917
 -748357.431928133 973596.725954032 -289171.229911401
 -575513.110944575 1107917.09057139 -181256.201189564
 -430506.814811101 1182243.50392270 -92269.2297179345
 -318177.902756528 1220490.52641476 -26741.8781730838
 -238716.633659341 1238669.19707160 16199.3814483892
 -193956.167898663 1245989.48447778 37955.7693088190
 -585729.885370470 -1117318.99999079 -8257.39440917069
 -673349.742458865 -1066768.45545168 -12434.5366932234
 -798146.201183161 -976511.045057142 -30630.8886135004
 -932116.508040761 -847431.549942817 -67587.0883998280
 -1057059.02891621 -677614.075708399 -122534.912198659
 -1158019.48810667 -463485.214844735 -189001.988625655
 -1218972.04928497 -203563.321837462 -253413.788068955
 -1222883.22305901 91896.1213327542 -296076.268153591
 -1160644.75448967 392930.870417203 -300097.510599049
 -1041637.57482744 660844.417852765 -264244.676425866
 -889562.745145496 871310.481240166 -202597.133862239
 -728956.963946591 1021080.39747825 -132536.777984019
 -577746.280412134 1119505.65767699 -66826.2584476445
 -447369.500943087 1179513.07805282 -12603.9377680555
 -346314.204684368 1212809.76672643 26615.2641499042
 -285291.014904746 1227939.55060198 48196.7613120345
 -696012.919828682 -1051718.26365527 31688.1719959109
 -789247.545953537 -983700.412200986 31164.7422720390
 -912829.689910211 -870585.204595724 19307.7620765338
 -1033813.29395951 -722993.688778621 -7722.05528450589
 -1135443.24060511 -547753.000350375 -47798.8377503183
 -1208710.45431975 -348631.697129115 -94996.8857067568
 -1247138.65866979 -128276.450294277 -140498.218031987
 -1244917.42279725 107227.535639363 -173874.371128996
 -1199104.40296262 344841.125768370 -186501.098370533
 -1112932.90862045 567488.628484362 -175745.350918669
 -995418.724802777 761267.981163975 -145471.832618874
 -858178.114324689 918960.506883685 -102914.244889394
 -713354.589699887 1039020.67176899 -55773.6847426255
 -573611.546925785 1123565.77103273 -10917.0653556408
 -453865.191747192 1176815.88069227 25694.3882923446
 -375665.164975227 1203383.98288151 47875.9280569814
 -796665.965313073 -975008.450400427 78938.5348134988
 -889274.945976291 -891338.183278991 79093.2639782044
 -1002217.35434486 -763168.726877013 68434.6395173473
 -1103579.35723817 -609678.238036997 44209.4928815667
 -1181573.94248294 -441977.672964831 9390.73824990038
 -1232966.70329080 -265326.753604875 -30728.7050927249
 -1256978.55571777 -81581.8024569942 -69991.0772347780
 -1252824.38359101 107453.007561083 -102148.646417072
 -1219854.15277881 297690.184336158 -122007.503937891
 -1158523.64488889 483023.433329077 -126731.045948882
 -1070609.56390546 657143.039674008 -116222.278419937
 -959029.170439801 814396.954578508 -92574.7348781119
 -828595.269781774 949439.987703271 -59523.2690990268
 -688141.697876058 1057126.49928526 -22226.0898967046
 -554067.304319897 1133312.94165698 12673.9684173260
 -457343.516519580 1175191.30171672 36217.9953312711
 -869430.667553693 -906478.369631747 118053.846298475
 -956681.498426409 -814174.146727281 115889.603884291
 -1056505.72723216 -681757.423726721 102722.414487357
 -1141523.93116383 -531560.560525075 76914.9919943755
 -1203719.20684222 -375306.577590775 41886.4514512669
 -1242674.97440740 -217490.331735434 2508.88463995562
 -1259680.49541002 -58631.1746030088 -36288.6451552278
 -1255514.49732433 101692.303624716 -69938.9255772384
 -1230202.82075271 263059.030861427 -94606.5378991556
 -1183316.26808296 423946.041996129 -107618.744115398
 -1114037.66032778 582132.097982671 -107664.956177313
 -1021308.17377285 734501.789099168 -94795.3950033559
 -905050.959241043 876043.504967392 -70568.8989588775
 -769317.762597675 999108.146969712 -38503.5287916600
 -627777.995718827 1094267.40693384 -4802.20079743293
 -513641.654291576 1152090.53692590 20225.6426685670
 535472.072443721 -1140933.07314363 55595.0821458262
 653531.250634294 -1078619.49779533 32036.1411389545
 798487.582777233 -976705.513485221 -3653.90162659893
 934200.682676358 -846845.560227054 -40879.2432624280
 1046905.92756458 -700266.879563707 -71858.9391460925
 1133809.13310456 -545516.231644063 -91860.3375810509
 1196454.28663937 -387710.178832823 -98627.5221763406
 1237111.62070391 -229553.677750824 -91702.6600997451
 1257416.36683792 -72528.5643604441 -72063.2963365810
 1258147.37006896 82763.1596871929 -42010.5404166890
 1239129.35427929 236819.127716590 -4957.32083802148
 1198990.00691788 390831.378396035 34974.6749959306
 1135502.08097290 544800.749347048 73325.2926081000
 1048018.82777228 694290.959513651 105669.442562062
 944115.203828692 826850.679324467 128506.291360110
 852878.590704550 918896.223425442 140631.685658800
 476955.324181857 -1166479.91864654 58203.5140511019
 577768.886813485 -1120922.15257184 35581.9086470747
 716356.688204557 -1038451.27608913 -1213.82552574792
 858514.954613842 -923384.355472245 -43160.5803071884
 986857.511372852 -781597.848123668 -82258.6589629728
 1093131.40169293 -619707.059539153 -112144.237075013
 1173889.17351583 -443926.451335929 -128308.008423359
 1227804.39158300 -260018.852572782 -128202.976701736
 1254462.64671394 -73615.9222276790 -111595.676049608
 1254115.85920237 110402.121001308 -80958.1020927694
 1227286.47232153 289186.370128710 -41092.4458666189
 1174008.69805691 461788.674085877 2056.28103035311