# OOMMF OVF 2.0
#
# Segment count: 1
#
# Begin: Segment
# Begin: Header
#
# Title: Oxs_MinDriver::Magnetization
# Desc: Oxs vector field output
# Desc:  MIF source file: C:/Users/grl31/Documents/GitHub/phd-work/Skyrmions/stdprob3/drive-10/stdprob3.mif
# Desc:  Iteration: 1433, State id: 3299
# Desc:  Stage: 0, Stage iteration: 1433
# Desc:  Stage simulation time: -1 s
# Desc:  Total simulation time: -2 s
# meshunit: m
# meshtype: rectangular
# xbase: 3.1249999999999999e-09
# ybase: 3.1249999999999999e-09
# zbase: 3.1249999999999999e-09
# xnodes: 16
# ynodes: 16
# znodes: 16
# xstepsize: 6.2499999999999997e-09
# ystepsize: 6.2499999999999997e-09
# zstepsize: 6.2499999999999997e-09
# xmin: 0
# ymin: 0
# zmin: 0
# xmax: 9.9999999999999995e-08
# ymax: 9.9999999999999995e-08
# zmax: 9.9999999999999995e-08
# valuedim: 3
# valuelabels: Magnetization_x Magnetization_y Magnetization_z
# valueunits: A/m A/m A/m
#
# End: Header
#
# Begin: Data Text
 -17412.8035056612 -1261325.89822028 -17412.7445232589
 -16207.3920008933 -1261336.40435971 -17810.8506369655
 -14364.5101894134 -1261351.61826299 -18308.1094411303
 -12127.3304959563 -1261367.96561317 -18793.9910311264
 -9635.46004709040 -1261383.09363666 -19216.6572598942
 -6979.93884192619 -1261395.47559727 -19549.0540807226
 -4223.90264450395 -1261404.16690761 -19776.6850994075
 -1413.66329594466 -1261408.63228843 -19892.0804158338
 1413.66359781900 -1261408.63228587 -19892.0805565548
 4223.90298208203 -1261404.16689728 -19776.6856864888
 6979.93966057758 -1261395.47558217 -19549.0547627776
 9635.46111689507 -1261383.09361813 -19216.6579395677
 12127.3316578988 -1261367.96559910 -18793.9912260280
 14364.5110518700 -1261351.61825481 -18308.1093281225
 16207.3930209485 -1261336.40435289 -17810.8501913209
 17412.8045838817 -1261325.89821174 -17412.7440633483
 -16179.1391847389 -1261358.75298650 -16179.0802747454
 -15209.8190891954 -1261366.64013691 -16501.2566776882
 -13575.0200184437 -1261379.49674508 -16938.5637404498
 -11511.0878761836 -1261393.99402292 -17381.5309385536
 -9170.84752610136 -1261407.71429850 -17773.7104410210
 -6654.59487727752 -1261419.07338702 -18085.0375010477
 -4030.97403347109 -1261427.09516129 -18299.3376999817
 -1349.70364152185 -1261431.22890256 -18408.2581582729
 1349.70399131995 -1261431.22889886 -18408.2583856663
 4030.97450589498 -1261427.09515196 -18299.3382387590
 6654.59560698878 -1261419.07337327 -18085.0381915705
 9170.84863391200 -1261407.71428276 -17773.7109867039
 11511.0889035038 -1261393.99401137 -17381.5310963375
 13575.0208332227 -1261379.49673813 -16938.5636050682
 15209.8200919966 -1261366.64013014 -16501.2562711335
 16179.1401974310 -1261358.75297820 -16179.0799094732
 -14309.2045617263 -1261403.95033958 -14309.1457276601
 -13545.1113737937 -1261409.58206207 -14554.2831776779
 -12178.4528904596 -1261419.35858121 -14910.3320119295
 -10386.3210775437 -1261430.89155078 -15285.9770653598
 -8308.28890188090 -1261442.11565110 -15626.6476298555
 -6044.86119916590 -1261451.56454946 -15900.9706543382
 -3667.55561939097 -1261458.30198255 -16091.3739016510
 -1228.95179588461 -1261461.79125494 -16188.5700518657
 1228.95227266638 -1261461.79125241 -16188.5702129210
 3667.55618936826 -1261458.30197537 -16091.3743346675
 6044.86191030990 -1261451.56453873 -15900.9712356503
 8308.28992607968 -1261442.11563979 -15626.6479983359
 10386.3219949523 -1261430.89154219 -15285.9771504124
 12178.4536741183 -1261419.35857587 -14910.3318237063
 13545.1123264815 -1261409.58205519 -14554.2828871505
 14309.2054540576 -1261403.95033166 -14309.1455336601
 -12054.9826229416 -1261451.06410107 -12054.9239400270
 -11460.2002206056 -1261454.86343051 -12236.1046651734
 -10362.6768806789 -1261461.65542236 -12511.5045413531
 -8883.92313162570 -1261469.92127268 -12811.8910799538
 -7135.54424230282 -1261478.16157203 -13090.5616449767
 -5206.63202773221 -1261485.21375519 -13318.3099118345
 -3164.73143335703 -1261490.29451747 -13477.8422655710
 -1061.38783258501 -1261492.94064776 -13559.6854938926
 1061.38844401030 -1261492.94064616 -13559.6855947467
 3164.73205257590 -1261490.29451301 -13477.8425375524
 5206.63272343548 -1261485.21374823 -13318.3102993388
 7135.54517277528 -1261478.16156512 -13090.5618030565
 8883.92394154663 -1261469.92126763 -12811.8910157940
 10362.6776917522 -1261461.65541703 -12511.5044072915
 11460.2010718004 -1261454.86342417 -12236.1045217730
 12054.9834350051 -1261451.06409386 -12054.9238816902
 -9559.57035961886 -1261493.82133471 -9559.51190349445
 -9112.00175612304 -1261496.14715511 -9688.81085417122
 -8272.18898171218 -1261500.36251113 -9891.26850789518
 -7120.53502310226 -1261505.59437258 -10117.5227510451
 -5738.89118698393 -1261510.90383500 -10331.2899634339
 -4198.32571969152 -1261515.50984836 -10508.2535242974
 -2556.14704466635 -1261518.85874270 -10633.2529242843
 -857.986830445431 -1261520.61196164 -10697.6807527418
 857.987549842201 -1261520.61196100 -10697.6807703747
 2556.14768603843 -1261518.85874029 -10633.2530563387
 4198.32634944614 -1261515.50984478 -10508.2537032275
 5738.89197801708 -1261510.90383132 -10331.2899728232
 7120.53580610333 -1261505.59436885 -10117.5226657453
 8272.18981434206 -1261500.36250713 -9891.26832216946
 9112.00247032181 -1261496.14715065 -9688.81076363177
 9559.57115948145 -1261493.82132865 -9559.51190345642
 -6914.10977731042 -1261528.36745574 -6914.05159037788
 -6601.11738683302 -1261529.56760028 -7000.44558861617
 -6008.41183786144 -1261531.75714526 -7138.32054089120
 -5186.68843435847 -1261534.50708853 -7294.97134663223
 -4190.99720093350 -1261537.33165715 -7444.95109360722
 -3072.09248451654 -1261539.80643321 -7570.33362439252
 -1872.95515664717 -1261541.61849828 -7659.48788579545
 -629.089972549470 -1261542.57108414 -7705.61530124972
 629.090752187918 -1261542.57108373 -7705.61530566024
 1872.95580988256 -1261541.61849708 -7659.48792378213
 3072.09304364642 -1261539.80643145 -7570.33369105677
 4190.99782597402 -1261537.33165604 -7444.95092970985
 5186.68920718796 -1261534.50708605 -7294.97122562004
 6008.41261844038 -1261531.75714279 -7138.32031887565
 6601.11809509899 -1261529.56759702 -7000.44550986547
 6914.11053586173 -1261528.36745216 -6914.05148487217
 -4179.44578385025 -1261552.41503051 -4179.38782238557
 -3993.99835655357 -1261552.85071667 -4228.91767630651
 -3641.09823277153 -1261553.64807803 -4308.86802110481
 -3148.75130448049 -1261554.65623127 -4400.63920049891
 -2548.51907927894 -1261555.69935854 -4489.25221499695
 -1870.62056815802 -1261556.61913404 -4563.81602711161
 -1141.50244553936 -1261557.29576963 -4617.07499793561
 -383.586016858171 -1261557.65247292 -4644.70319154125
 383.586816218241 -1261557.65247274 -4644.70317438689
 1141.50306306391 -1261557.29576926 -4617.07494702278
 1870.62106704163 -1261556.61913345 -4563.81598566103
 2548.51963107809 -1261555.69935810 -4489.25202495955
 3148.75204449093 -1261554.65623013 -4400.63899915267
 3641.09896576822 -1261553.64807686 -4308.86774426879
 3993.99903285566 -1261552.85071517 -4228.91748520179
 4179.44649585788 -1261552.41502887 -4179.38760553902
 -1397.98700475632 -1261564.71191342 -1397.92921895486
 -1336.53284886714 -1261564.76053599 -1414.06247219042
 -1219.33652118407 -1261564.84963436 -1440.24457920655
 -1055.36048191858 -1261564.96262610 -1470.44462830135
 -854.876407177421 -1261565.07994112 -1499.72611885330
 -627.898980758637 -1261565.18370244 -1524.44470670263
 -383.337177916800 -1261565.26021206 -1542.14060069775
 -128.845103376129 -1261565.30060268 -1551.33270235996
 128.845849872845 -1261565.30060267 -1551.33265181092
 383.337771685935 -1261565.26021193 -1542.14056146764
 627.899441780306 -1261565.18370237 -1524.44457031532
 854.876951699331 -1261565.07994099 -1499.72592187794
 1055.36115388142 -1261564.96262586 -1470.44435423193
 1219.33719624022 -1261564.84963405 -1440.24427807758
 1336.53346972570 -1261564.76053572 -1414.06212457699
 1397.98766297662 -1261564.71191310 -1397.92884442236
 1397.98807034173 -1261564.71178312 1398.04574005374
 1336.53370854391 -1261564.76040437 1414.17907884076
 1219.33734825425 -1261564.84950018 1440.36140122554
 1055.36120751789 -1261564.96248912 1470.56162576092
 854.876940800269 -1261565.07980147 1499.84328703479
 627.899461142798 -1261565.18356039 1524.56205797251
 383.337828361312 -1261565.26006831 1542.25803349571
 128.845812241791 -1261565.30045829 1551.45006156192
 -128.845171887594 -1261565.30045834 1551.45007760438
 -383.337226187165 -1261565.26006845 1542.25806534788
 -627.898986582347 -1261565.18356050 1524.56216303658
 -854.876497281586 -1261565.07980148 1499.84353135660
 -1055.36060334007 -1261564.96248927 1470.56193030972
 -1219.33674746361 -1261564.84950031 1440.36179638146
 -1336.53318306754 -1261564.76040432 1414.17961842423
 -1397.98740835607 -1261564.71178325 1398.04628012770
 4179.44684931314 -1261552.41464044 4179.50450029421
 3993.99919938720 -1261552.85032254 4229.03445514380
 3641.09902444367 -1261553.64767646 4308.98492259142
 3148.75200552881 -1261554.65582088 4400.75634719568
 2548.51955987853 -1261555.69894035 4489.36945705814
 1870.62106876128 -1261556.61870825 4563.93352060248
 1141.50311299132 -1261557.29533902 4617.19249170584
 383.586708302131 -1261557.65204032 4644.82063342806
 -383.586156182871 -1261557.65204052 4644.82062430687
 -1141.50249642505 -1261557.29533945 4617.19252393175
 -1870.62057956347 -1261556.61870875 4563.93358364640
 -2548.51920331303 -1261555.69893996 4489.36977052881
 -3148.75151452535 -1261554.65582099 4400.75666574882
 -3641.09851990879 -1261553.64767602 4308.98547833456
 -3993.99875389043 -1261552.85032172 4229.03512155310
 -4179.44619832668 -1261552.41464022 4179.50521607375
 6914.11077757074 -1261528.36680917 6914.16856227660
 6601.11819974063 -1261529.56694627 7000.56267956929
 6008.41257539442 -1261531.75647881 7138.43769768277
 5186.68907181608 -1261534.50640716 7295.08872190974
 4190.99769342815 -1261537.33096249 7445.06852464316
 3072.09303014886 -1261539.80572567 7570.45130814305
 1872.95582876231 -1261541.61778286 7659.60555211150
 629.090650392010 -1261542.57036553 7705.73289482852
 -629.090123999253 -1261542.57036600 7705.73286033222
 -1872.95521385414 -1261541.61778368 7659.60556783867
 -3072.09249851466 -1261539.80572624 7570.45142825259
 -4190.99735946162 -1261537.33096165 7445.06885410829
 -5186.68869387027 -1261534.50640630 7295.08914042155
 -6008.41221486351 -1261531.75647701 7138.43831985977
 -6601.11779028037 -1261529.56694425 7000.56343000387
 -6914.11024485796 -1261528.36680736 6914.16942427272
 9559.57125535214 -1261493.82043825 9559.62930573797
 9112.00247577748 -1261496.14624812 9688.92826791610
 8272.18966905569 -1261500.36158543 9891.38599255452
 7120.53558455311 -1261505.59342563 10117.6404261434
 5738.89176431815 -1261510.90286761 10331.4077658467
 4198.32631849334 -1261515.50886399 10508.3714579073
 2556.14769912690 -1261518.85774738 10633.3708507079
 857.987524910710 -1261520.61096226 10697.7985472420
 -857.986921613767 -1261520.61096273 10697.7985401863
 -2556.14707159531 -1261518.85774847 10633.3708722867
 -4198.32573487972 -1261515.50886454 10508.3716251069
 -5738.89140123980 -1261510.90286660 10331.4080909212
 -7120.53530403207 -1261505.59342361 10117.6408749937
 -8272.18943769809 -1261500.36158150 9891.38668754478
 -9112.00217722204 -1261496.14624364 9688.92913211579
 -9559.57090602510 -1261493.82043371 9559.63025512324
 12054.9833751262 -1261451.06296837 12055.0417150192
 11460.2008948077 -1261454.86228166 12236.2224714695
 10362.6774682443 -1261461.65424845 12511.6224126003
 8883.92363362078 -1261469.92007053 12812.0090965016
 7135.54487810170 -1261478.16034215 13090.6798157083
 5206.63266650695 -1261485.21250332 13318.4282358716
 3164.73211465234 -1261490.29325218 13477.9605325800
 1061.38852422636 -1261492.93937723 13559.8036396753
 -1061.38778579157 -1261492.93937787 13559.8036382859
 -3164.73140356576 -1261490.29325361 13477.9605659103
 -5206.63203351429 -1261485.21250392 13318.4284269513
 -7135.54450674951 -1261478.16034051 13090.6801758852
 -8883.92344318858 -1261469.92006695 12812.0095803405
 -10362.6773280022 -1261461.65424254 12511.6231255208
 -11460.2007738294 -1261454.86227424 12236.2233492832
 -12054.9832305083 -1261451.06295946 12055.0427920781
 14309.2052104251 -1261403.94899208 14309.2638657757
 13545.1119576441 -1261409.58069248 14554.4013351930
 12178.4533717130 -1261419.35717961 14910.4501950216
 10386.3216086012 -1261430.89011156 15286.0954713141
 8308.28955522610 -1261442.11417735 15626.7662490520
 6044.86185604076 -1261451.56304992 15901.0893656008
 3667.55630084535 -1261458.30046680 16091.4925703154
 1228.95248641930 -1261461.78973312 16188.6885835485
 -1228.95160523592 -1261461.78973352 16188.6886192277
 -3667.55550145003 -1261458.30046831 16091.4926346800
 -6044.86119066696 -1261451.56305016 15901.0895994785
 -8308.28918082686 -1261442.11417563 15626.7665868249
 -10386.3214182298 -1261430.89010658 15286.0960114996
 -12178.4533247418 -1261419.35717104 14910.4509577840
 -13545.1120357131 -1261409.58068188 14554.4021816167
 -14309.2052549453 -1261403.94897900 14309.2649747438
 16179.1397461575 -1261358.75146018 16179.1987086742
 15209.8195931851 -1261366.63858070 16501.3751705500
 13575.0204448980 -1261379.49514904 16938.6822519403
 11511.0884296413 -1261393.99238191 17381.6496611341
 9170.84822701529 -1261407.71261721 17773.8294008168
 6654.59554397151 -1261419.07167607 18085.1565923490
 4030.97469464088 -1261427.09343237 18299.4567328015
 1349.70429875345 -1261431.22716640 18408.3770800270
 -1349.70334938680 -1261431.22716667 18408.3771316050
 -4030.97380283875 -1261427.09343422 18299.4568017365
 -6654.59486380232 -1261419.07167712 18085.1567697607
 -9170.84779045938 -1261407.71261436 17773.8298283714
 -11511.0882379107 -1261393.99237559 17381.6502466348
 -13575.0204539915 -1261379.49513830 16938.6830441632
 -15209.8197937263 -1261366.63856839 16501.3759269345
 -16179.1399753589 -1261358.75144311 16179.1998102857
 17412.8039948497 -1261325.89657528 17412.8631920527
 16207.3924620498 -1261336.40267733 17810.9693598248
 14364.5105872978 -1261351.61653520 18308.2281659435
 12127.3311083012 -1261367.96383519 18794.1099662251
 9635.46072007424 -1261383.09181488 19216.7765040833
 6979.93957541461 -1261395.47374423 19549.1733851523
 4223.90322512237 -1261404.16503504 19776.8044121054
 1413.66395408898 -1261408.63040919 19892.1995365600
 -1413.66296411442 -1261408.63040908 19892.1996134612
 -4223.90232366087 -1261404.16503805 19776.8044126422
 -6979.93885634667 -1261395.47374583 19549.1735385537
 -9635.46024905449 -1261383.09181222 19216.7769147623
 -12127.3309002123 -1261367.96382783 18794.1105943556
 -14364.5106291215 -1261351.61652266 18308.2289970298
 -16207.3927044567 -1261336.40266377 17810.9700997689
 -17412.8043378077 -1261325.89655621 17412.8642309941
 -17810.9096195999 -1261336.40428794 -16207.3327677458
 -16535.4577935071 -1261349.51149442 -16535.3986134644
 -14619.7424157859 -1261367.30497961 -16976.9249016270
 -12320.2034460933 -1261385.78086047 -17422.8398671059
 -9775.89877825146 -1261402.55795310 -17817.1128806116
 -7075.34355098740 -1261416.13967841 -18129.8922061402
 -4279.24818716935 -1261425.61245945 -18345.1133877966
 -1431.80219268032 -1261430.46299599 -18454.4814922920
 1431.80251899687 -1261430.46299210 -18454.4817330142
 4279.24864502177 -1261425.61244954 -18345.1139626159
 7075.34427506442 -1261416.13966361 -18129.8929530609
 9775.89988574295 -1261402.55793570 -17817.1135049297
 12320.2044739324 -1261385.78084698 -17422.8401168298
 14619.7432368441 -1261367.30497078 -16976.9248506730
 16535.4588010261 -1261349.51148543 -16535.3982912834
 17810.9106371171 -1261336.40427736 -16207.3324728006
 -16501.3155493548 -1261366.64007986 -15209.7599501861
 -15491.4573581207 -1261376.01937237 -15491.3982645197
 -13803.2026554226 -1261390.70097175 -15887.1651783443
 -11687.5762134395 -1261406.85387765 -16296.6398897728
 -9301.06644998916 -1261421.91341749 -16663.6560218474
 -6743.72878461721 -1261434.26685342 -16957.1061506924
 -4082.89753592707 -1261442.94261189 -17159.9359361194
 -1366.75253286063 -1261447.40008821 -17263.2475844044
 1366.75295929540 -1261447.40008514 -17263.2477753121
 4082.89801027310 -1261442.94260336 -17159.9364497583
 6743.72955956773 -1261434.26684035 -16957.1068146738
 9301.06743138637 -1261421.91340218 -16663.6566324103
 11687.5772172060 -1261406.85386644 -16296.6400377473
 13803.2034681973 -1261390.70096326 -15887.1651463971
 15491.4583001277 -1261376.01936441 -15491.3979703604
 16501.3165366497 -1261366.64006952 -15209.7597364246
 -14554.3419338209 -1261409.58201771 -13545.0523711348
 -13768.3240814502 -1261415.98969065 -13768.2650935696
 -12366.8027283215 -1261426.88301660 -14096.5212817496
 -10536.3114467294 -1261439.53748093 -14446.8107191213
 -8421.07567550906 -1261451.72352904 -14767.0446957451
 -6122.97575765702 -1261461.91044042 -15026.2635015989
 -3713.36882198457 -1261469.14198989 -15206.7622532846
 -1244.04089730856 -1261472.87801918 -15299.0621678427
 1244.04142617529 -1261472.87801649 -15299.0623459850
 3713.36939094757 -1261469.14198390 -15206.7626117182
 6122.97650133108 -1261461.91043022 -15026.2640549731
 8421.07662668671 -1261451.72351844 -14767.0450581528
 10536.3123052720 -1261439.53747235 -14446.8108415199
 12366.8035048364 -1261426.88300985 -14096.5212051908
 13768.3249930089 -1261415.98968212 -13768.2649641986
 14554.3428528904 -1261409.58200822 -13545.0522672613
 -12236.1633019582 -1261454.86339654 -11460.1413527717
 -11629.1950515887 -1261459.05836552 -11629.1362094357
 -10509.5892228748 -1261466.48436724 -11886.4743081381
 -9003.92610480578 -1261475.43897023 -12168.6937888766
 -7227.48355226287 -1261484.30240224 -12431.7815778680
 -5271.11339448539 -1261491.84916126 -12647.5603277936
 -3202.83808338331 -1261497.26782649 -12799.0629913503
 -1073.98368067705 -1261500.08450232 -12876.8893235034
 1073.98429498405 -1261500.08450128 -12876.8893738264
 3202.83876344846 -1261497.26782255 -12799.0632101354
 5271.11405798844 -1261491.84915538 -12647.5606377317
 7227.48442880010 -1261484.30239533 -12431.7817691345
 9003.92686824572 -1261475.43896443 -12168.6938251250
 10509.5900091095 -1261466.48436145 -11886.4742272121
 11629.1958600296 -1261459.05835847 -11629.1361657469
 12236.1641407071 -1261454.86338816 -11460.1413792627
 -9688.86932430540 -1261496.14712989 -9111.94307624982
 -9234.33797071707 -1261498.66666882 -9234.27928895279
 -8380.67911906459 -1261503.21499016 -9425.16344470953
 -7210.86173169611 -1261508.82888655 -9638.93320429159
 -5809.16976029600 -1261514.49851656 -9841.46829342178
 -4248.16603229331 -1261519.39873841 -10009.5260125414
 -2585.80946491793 -1261522.95238016 -10128.4315865493
 -867.824851283621 -1261524.80999076 -10189.7780523502
 867.825569301240 -1261524.80999059 -10189.7780119298
 2585.81019050274 -1261522.95237754 -10128.4317280580
 4248.16665747255 -1261519.39873534 -10009.5261345171
 5809.17049280257 -1261514.49851327 -9841.46828292282
 7210.86247441693 -1261508.82888291 -9638.93312598520
 8380.67983163194 -1261503.21498609 -9425.16335509000
 9234.33874060030 -1261498.66666264 -9234.27936308199
 9688.87006832926 -1261496.14712386 -9111.94311962150
 -7000.50386633414 -1261529.56758263 -6601.05895673745
 -6683.56233203766 -1261530.85245252 -6683.50386558395
 -6082.46097685286 -1261533.19443615 -6814.24413640762
 -5249.15404842811 -1261536.12566257 -6962.82622196210
 -4240.15116276647 -1261539.12612427 -7105.30046464420
 -3107.25165839370 -1261541.74769399 -7224.59211864083
 -1893.99836275161 -1261543.66340476 -7309.51519997190
 -636.088586682759 -1261544.66927209 -7353.48498615536
 636.089396512844 -1261544.66927175 -7353.48497344049
 1893.99903753068 -1261543.66340375 -7309.51519869727
 3107.25224488863 -1261541.74769250 -7224.59212598224
 4240.15176236361 -1261539.12612286 -7105.30035736533
 5249.15476921348 -1261536.12566025 -6962.82610014509
 6082.46168539828 -1261533.19443362 -6814.24397122766
 6683.56297276625 -1261530.85244932 -6683.50382849982
 7000.50456670011 -1261529.56757852 -6601.05899986919
 -4228.97574448724 -1261552.85070619 -3993.94018381876
 -4041.49738189711 -1261553.31396961 -4041.43911922485
 -3684.08193630134 -1261554.16236221 -4117.50966350351
 -3185.30550474682 -1261555.23252547 -4204.76341749155
 -2577.49332282430 -1261556.33690599 -4289.08608734482
 -1891.46403651969 -1261557.30851744 -4360.11570809099
 -1154.02550960470 -1261558.02210983 -4410.89496641965
 -387.759004539672 -1261558.39791950 -4437.25148089650
 387.759813700970 -1261558.39791933 -4437.25145610080
 1154.02615562653 -1261558.02210930 -4410.89494822012
 1891.46454163217 -1261557.30851702 -4360.11561113167
 2577.49385995111 -1261556.33690559 -4289.08588264376
 3185.30617945426 -1261555.23252437 -4204.76323726102
 3684.08262059102 -1261554.16236086 -4117.50946539494
 4041.49795874523 -1261553.31396823 -4041.43897546903
 4228.97640065471 -1261552.85070434 -3993.94007170337
 -1414.12037174346 -1261564.76053253 -1336.47484872673
 -1352.03968702033 -1261564.81207007 -1351.98160411529
 -1233.41839156796 -1261564.90663578 -1376.93248637502
 -1067.38201381018 -1261565.02633892 -1405.67886438168
 -864.438926004925 -1261565.15034022 -1433.56595981832
 -634.797471139746 -1261565.25979851 -1457.12753264639
 -387.489935552852 -1261565.34038947 -1474.00763083592
 -130.230236306667 -1261565.38289616 -1482.78019827636
 130.230985525343 -1261565.38289614 -1482.78014949343
 387.490522481130 -1261565.34038929 -1474.00763030568
 634.797952956153 -1261565.25979839 -1457.12742706222
 864.439390126173 -1261565.15034014 -1433.56575243031
 1067.38265902229 -1261565.02633867 -1405.67859958802
 1233.41900310439 -1261564.90663550 -1376.93219804550
 1352.04023909145 -1261564.81206978 -1351.98132170960
 1414.12099308008 -1261564.76053214 -1336.47456468315
 1414.12129115355 -1261564.76040780 1336.59160895278
 1352.04045595241 -1261564.81194402 1352.09844761138
 1233.41913225369 -1261564.90650735 1377.04949417062
 1067.38269179231 -1261565.02620781 1405.79601663167
 864.439404457289 -1261565.15020651 1433.68333531910
 634.797938565217 -1261565.25966251 1457.24507000348
 387.490550517846 -1261565.34025177 1474.12531697539
 130.230928902282 -1261565.38275789 1482.89777108319
 -130.230301536056 -1261565.38275792 1482.89780118646
 -387.489988435963 -1261565.34025197 1474.12529563352
 -634.797477099511 -1261565.25966259 1457.24520557596
 -864.438961086659 -1261565.15020661 1433.68351196515
 -1067.38214826544 -1261565.02620791 1405.79633905327
 -1233.41857783269 -1261564.90650750 1377.04984783210
 -1352.03994391568 -1261564.81194407 1352.09891050403
 -1414.12070063125 -1261564.76040793 1336.59210982213
 4228.97665475074 -1261552.85033299 3994.05709836941
 4041.49810705606 -1261553.31359242 4041.55613366846
 3684.08267343393 -1261554.16197772 4117.62680453653
 3185.30612669914 -1261555.23213281 4204.88075587375
 2577.49380110688 -1261556.33650574 4289.20352351947
 1891.46451823579 -1261557.30811012 4360.23335176919
 1154.02613953315 -1261558.02169767 4411.01268330449
 387.759696713655 -1261558.39750550 4437.36912114878
 -387.759160529680 -1261558.39750552 4437.36916414472
 -1154.02557936616 -1261558.02169818 4411.01268438861
 -1891.46405240173 -1261557.30811041 4360.23347064889
 -2577.49342095620 -1261556.33650572 4289.20376000337
 -3185.30568478270 -1261555.23213288 4204.88106967065
 -3684.08220599854 -1261554.16197758 4117.62726424939
 -4041.49767178285 -1261553.31359191 4041.55672771209
 -4228.97609276634 -1261552.85033269 3994.05779103462
 7000.50472912002 -1261529.56696429 6601.17621167544
 6683.56301813542 -1261530.85182747 6683.62115798425
 6082.46165202709 -1261533.19379877 6814.36153177643
 5249.15461437488 -1261536.12501136 6962.94378121690
 4240.15165105645 -1261539.12545973 7105.41815973580
 3107.25218831970 -1261541.74701790 7224.70994692481
 1893.99899383196 -1261543.66272091 7309.63305942668
 636.089286205745 -1261544.66858524 7353.60275933439
 -636.088745528548 -1261544.66858538 7353.60278195051
 -1893.99843655940 -1261543.66272149 7309.63310425624
 -3107.25169788255 -1261541.74701840 7224.71006997187
 -4240.15129406491 -1261539.12545941 7105.41842987401
 -5249.15428555316 -1261536.12501075 6962.94414086509
 -6082.46130632358 -1261533.19379748 6814.36207859218
 -6683.56267751504 -1261530.85182540 6683.62188995292
 -7000.50425889232 -1261529.56696267 6601.17702011493
 9688.87009326265 -1261496.14627441 9112.06069404933
 9234.33863281413 -1261498.66580218 9234.39701837338
 8380.67969480604 -1261503.21410669 9425.28117836633
 7210.86226213620 -1261508.82798274 9639.05109417551
 5809.17028264173 -1261514.49759393 9841.58624934990
 4248.16658481000 -1261519.39779933 10009.6441314096
 2585.81016414198 -1261522.95143008 10128.5497430795
 867.825510713614 -1261524.80903729 10189.8960383292
 -867.824924270138 -1261524.80903743 10189.8960712671
 -2585.80953352433 -1261522.95143155 10128.5497209000
 -4248.16605284389 -1261519.39779961 10009.6443220000
 -5809.16996115861 -1261514.49759276 9841.58658993040
 -7210.86199417190 -1261508.82798108 9639.05151165932
 -8380.67947360358 -1261503.21410344 9425.28181049503
 -9234.33843423190 -1261498.66579800 9234.39778718465
 -9688.86978103645 -1261496.14627014 9112.06161638151
 12236.1639730459 -1261454.86231753 11460.2594059495
 11629.1956102453 -1261459.05727193 11629.2542762182
 10509.5897610580 -1261466.48325005 11886.5923945396
 9003.92659598477 -1261475.43782590 12168.8120524617
 7227.48412857814 -1261484.30123203 12431.8999855265
 5271.11398626011 -1261491.84797099 12647.6788006159
 3202.83876835171 -1261497.26662226 12799.1815109784
 1073.98435534000 -1261500.08329385 12877.0076562814
 -1073.98365278147 -1261500.08329386 12877.0077129835
 -3202.83806982152 -1261497.26662441 12799.1814733337
 -5271.11341703827 -1261491.84797106 12647.6790309198
 -7227.48379321699 -1261484.30123055 12431.9003307420
 -9003.92636869638 -1261475.43782305 12168.8125161918
 -10509.5896385558 -1261466.48324420 11886.5931237930
 -11629.1955739081 -1261459.05726463 11629.2551041990
 -12236.1638781040 -1261454.86230964 11460.2603755874
 14554.3424917553 -1261409.58073976 13545.1707826618
 13768.3245789008 -1261415.98839243 13768.3835357820
 12366.8031856281 -1261426.88168824 14096.6397485898
 10536.3119291157 -1261439.53611816 14446.9293581747
 8421.07630480275 -1261451.72213420 14767.1634884065
 6122.97638875887 -1261461.90902039 15026.3824563954
 3713.36949250968 -1261469.14055514 15206.8811082605
 1244.04156984582 -1261472.87657760 15299.1809764590
 -1244.04076342186 -1261472.87657825 15299.1809889607
 -3713.36869738260 -1261469.14055624 15206.8812110464
 -6122.97578330508 -1261461.90902082 15026.3826669324
 -8421.07591226522 -1261451.72213193 14767.1639056576
 -10536.3117384615 -1261439.53611373 14446.9298846361
 -12366.8031423356 -1261426.88168064 14096.6404670429
 -13768.3247021146 -1261415.98838216 13768.3843537282
 -14554.3426045557 -1261409.58072747 13545.1718057342
 16501.3159977061 -1261366.63864236 15209.8786768910
 15491.4577909981 -1261376.01790870 15491.5170096440
 13803.2030540757 -1261390.69947129 15887.2839633269
 11687.5767551754 -1261406.85233568 16296.7588539299
 9301.06707346563 -1261421.91183784 16663.7752508723
 6743.72946200639 -1261434.26524605 16957.2254523948
 4082.89815015275 -1261442.94098714 17160.0552258393
 1366.75321169578 -1261447.39845717 17263.3667126317
 -1366.75230175593 -1261447.39845633 17263.3668459648
 -4082.89732437715 -1261442.94098892 17160.0552914467
 -6743.72880709397 -1261434.26524648 16957.2256809740
 -9301.06663830123 -1261421.91183543 16663.7756763903
 -11687.5765582077 -1261406.85233048 16296.7593971439
 -13803.2030806287 -1261390.69946116 15887.2847445499
 -15491.4579992192 -1261376.01789671 15491.5177775728
 -16501.3162951565 -1261366.63862606 15209.8797062475
 17810.9099865857 -1261336.40275466 16207.4516915410
 16535.4582120586 -1261349.50992905 16535.5176032637
 14619.7427724030 -1261367.30337380 16977.0439047352
 12320.2039902307 -1261385.77920854 17422.9590786494
 9775.89946543367 -1261402.55626059 17817.2323284241
 7075.34420484916 -1261416.13795617 18130.0117783187
 4279.24880127155 -1261425.61071891 18345.2329250809
 1431.80283447599 -1261430.46124780 18454.6009373437
 -1431.80188395540 -1261430.46124804 18454.6009947707
 -4279.24796783774 -1261425.61072051 18345.2330091150
 -7075.34351022584 -1261416.13795710 18130.0119845972
 -9775.89899926233 -1261402.55625806 17817.2327635875
 -12320.2037754036 -1261385.77920257 17422.9596630094
 -14619.7428325208 -1261367.30336274 16977.0446742390
 -16535.4584603660 -1261349.50991632 16535.5183262773
 -17810.9103965795 -1261336.40273527 16207.4527501057
 -18308.1686209450 -1261351.61808271 -14364.4505926436
 -16976.9842061725 -1261367.30487148 -14619.6828785124
 -14984.3366418252 -1261388.27171310 -14984.2770597547
 -12606.6047615684 -1261409.68041760 -15366.2807506814
 -9989.56392428987 -1261428.86719975 -15711.5411943644
 -7222.67273366407 -1261444.25727946 -15989.0491964870
 -4365.45340837989 -1261454.92741965 -16181.4654523173
 -1460.16635031578 -1261460.37283951 -16279.6372440573
 1460.16676433177 -1261460.37283656 -16279.6374353993
 4365.45393401520 -1261454.92741106 -16181.4659802039
 7222.67342558733 -1261444.25726634 -15989.0499186742
 9989.56494124582 -1261428.86718463 -15711.5417623900
 12606.6056795582 -1261409.68040464 -15366.2810610177
 14984.3374367106 -1261388.27170304 -14984.2771118113
 16976.9851708485 -1261367.30485923 -14619.6828155477
 18308.1695233709 -1261351.61806935 -14364.4506160864
 -16938.6227675033 -1261379.49659271 -13574.9605238033
 -15887.2243954215 -1261390.70087639 -13803.1432116240
 -14136.2454869730 -1261407.85066824 -14136.1860140327
 -11952.7974361640 -1261426.41368246 -14490.1489503099
 -9500.72692197953 -1261443.51475506 -14813.0411902763
 -6882.18752061832 -1261457.42615807 -15074.0971384021
 -4164.18218851800 -1261467.14286627 -15255.7521764344
 -1393.53867458215 -1261472.11983012 -15348.6110189458
 1393.53916248729 -1261472.11982720 -15348.6112150086