# OOMMF OVF 2.0
#
# Segment count: 1
#
# Begin: Segment
# Begin: Header
#
# Title: Oxs_MinDriver::Magnetization
# Desc: Oxs vector field output
# Desc:  MIF source file: C:/Users/grl31/Documents/GitHub/phd-work/Skyrmions/stdprob3/drive-13/stdprob3.mif
# Desc:  Iteration: 2014, State id: 4524
# Desc:  Stage: 0, Stage iteration: 2014
# Desc:  Stage simulation time: -1 s
# Desc:  Total simulation time: -2 s
# meshunit: m
# meshtype: rectangular
# xbase: 3.1249999999999999e-09
# ybase: 3.1249999999999999e-09
# zbase: 3.1249999999999999e-09
# xnodes: 16
# ynodes: 16
# znodes: 16
# xstepsize: 6.2499999999999997e-09
# ystepsize: 6.2499999999999997e-09
# zstepsize: 6.2499999999999997e-09
# xmin: 0
# ymin: 0
# zmin: 0
# xmax: 9.9999999999999995e-08
# ymax: 9.9999999999999995e-08
# zmax: 9.9999999999999995e-08
# valuedim: 3
# valuelabels: Magnetization_x Magnetization_y Magnetization_z
# valueunits: A/m A/m A/m
#
# End: Header
#
# Begin: Data Text
 -33681.8665068104 -1260666.68612679 -33681.8835231500
 -31361.9856329975 -1260706.26095900 -34432.2574760436
 -27808.8950709899 -1260763.76652263 -35366.9520533845
 -23489.4357870857 -1260825.74060834 -36278.4942465001
 -18671.6091473812 -1260883.25681661 -37070.4007308002
 -13531.0065198849 -1260930.45314924 -37692.6398964373
 -8190.56043127503 -1260963.64869283 -38118.5297989183
 -2741.62955346741 -1260980.72575455 -38334.3665901871
 2741.63197596244 -1260980.72572946 -38334.3672422809
 8190.56285605744 -1260963.64863940 -38118.5310453982
 13531.0094084244 -1260930.45305125 -37692.6421377072
 18671.6124938726 -1260883.25667875 -37070.4037343269
 23489.4390909984 -1260825.74043824 -36278.4980189902
 27808.8978055489 -1260763.76633761 -35366.9564990161
 31361.9882875498 -1260706.26075660 -34432.2624686527
 33681.8693203662 -1260666.68590956 -33681.8888403168
 -31256.5025022887 -1260791.61321877 -31256.5194398018
 -29396.8114290807 -1260821.36111066 -31855.1999494907
 -26251.5689330302 -1260869.89864213 -32670.8546825396
 -22272.8150933281 -1260924.76589966 -33497.5725637026
 -17753.8303960566 -1260976.83483330 -34229.4381931830
 -12888.0977534426 -1261020.05172525 -34810.3002299553
 -7809.23094447968 -1261050.63269805 -35210.0639429900
 -2615.19775968466 -1261066.41182108 -35413.2268557235
 2615.20026565235 -1261066.41180148 -35413.2273686132
 7809.23350156949 -1261050.63264514 -35210.0652707116
 12888.1005424406 -1261020.05163525 -34810.3024575395
 17753.8336124992 -1260976.83470661 -34229.4411917943
 22272.8182454359 -1260924.76574217 -33497.5763959386
 26251.5716556159 -1260869.89847201 -32670.8590602656
 29396.8141268864 -1260821.36092400 -31855.2048478105
 31256.5052053466 -1260791.61302159 -31256.5246902979
 -27602.5574316475 -1260962.18326852 -27602.5743160366
 -26139.9720906589 -1260983.48645531 -28049.5929573760
 -23516.3741464927 -1261020.37487380 -28705.8394596966
 -20068.1605436430 -1261063.94664744 -29401.0597995330
 -16062.1418932994 -1261106.44861335 -30032.7118750250
 -11691.7747218458 -1261142.31206402 -30541.8081428066
 -7096.00449146160 -1261167.93337676 -30895.3307380286
 -2378.18647409389 -1261181.21912201 -31075.8375908073
 2378.18926604241 -1261181.21911007 -31075.8378615774
 7096.00720159945 -1261167.93332765 -30895.3321202088
 11691.7774658641 -1261142.31198606 -30541.8103115562
 16062.1447464329 -1261106.44850638 -30032.7148411067
 20068.1635483162 -1261063.94650889 -29401.0636912363
 23516.3768404353 -1261020.37472758 -28705.8436764582
 26139.9747551346 -1260983.48629191 -28049.5978197315
 27602.5598563962 -1260962.18310628 -27602.5793031124
 -23219.6047442525 -1261138.82266954 -23219.6216625876
 -22082.9626294672 -1261153.23290239 -23543.5090906536
 -19979.9210512843 -1261178.85569954 -24044.2843549985
 -17139.7819771753 -1261210.03795130 -24594.6938101265
 -13774.8948199563 -1261241.17607778 -25107.3486768829
 -10056.2003704709 -1261267.87906725 -25527.2596701742
 -6114.58563392160 -1261287.15164706 -25821.7708830137
 -2051.08405946040 -1261297.20100703 -25972.9610356045
 2051.08690604854 -1261297.20099651 -25972.9613217505
 6114.58835366495 -1261287.15160421 -25821.7723320248
 10056.2030187676 -1261267.87900347 -25527.2617779870
 13774.8973874654 -1261241.17599115 -25107.3516201108
 17139.7847052135 -1261210.03784033 -24594.6975995788
 19979.9237203756 -1261178.85557804 -24044.2885099468
 22082.9651930536 -1261153.23276950 -23543.5138047194
 23219.6069892184 -1261138.82254362 -23219.6262570554
 -18388.6131352424 -1261298.19951964 -18388.6300314838
 -17534.3006416639 -1261307.03802256 -18615.4520417965
 -15927.4106261873 -1261322.93925328 -18978.7097337759
 -13718.8593674188 -1261342.65248078 -19389.0909887334
 -11063.7176040109 -1261362.67979688 -19779.1579032710
 -8097.91742768642 -1261380.08369410 -20103.2114884573
 -4932.22654526170 -1261392.75803692 -20332.5854789525
 -1655.84915343360 -1261399.40069470 -20450.9415327422
 1655.85188789228 -1261399.40068378 -20450.9419851708
 4932.22920190129 -1261392.75800139 -20332.5870390896
 8097.91995027628 -1261380.08364470 -20103.2135718535
 11063.7198295791 -1261362.67973207 -19779.1607918427
 13718.8617902903 -1261342.65240089 -19389.0944711008
 15927.4132401677 -1261322.93915909 -18978.7137999188
 17534.3031880259 -1261307.03792183 -18615.4564680736
 18388.6153620424 -1261298.19942496 -18388.6342988081
 -13285.5452401143 -1261426.34309244 -13285.5620528750
 -12688.6008685082 -1261430.90945772 -13434.6935814393
 -11555.7346252570 -1261439.16820733 -13679.2115495022
 -9981.73611649223 -1261449.52026953 -13960.7906233486
 -8070.54705482529 -1261460.15958651 -14232.4616695986
 -5918.99570654335 -1261469.49482207 -14460.6376809786
 -3609.98147083805 -1261476.34022583 -14623.3376210829
 -1212.76208197076 -1261479.94250917 -14707.6433922594
 1212.76461226866 -1261479.94250140 -14707.6438502152
 3609.98399625387 -1261476.34020096 -14623.3391431447
 5918.99814249474 -1261469.49478711 -14460.6397335520
 8070.54911948057 -1261460.15954188 -14232.4644542100
 9981.73836003338 -1261449.52021660 -13960.7938016372
 11555.7371798658 -1261439.16814302 -13679.2153220379
 12688.6034479976 -1261430.90938848 -13434.6976466372
 13285.5475561703 -1261426.34302567 -13285.5660762121
 -8024.79735279683 -1261515.21429812 -8024.81406362777
 -7671.29573080785 -1261516.87317165 -8109.30601141454
 -6997.25551905464 -1261519.88047044 -8249.87951458241
 -6054.91667026075 -1261523.67322816 -8413.72616691643
 -4903.73514514543 -1261527.59856959 -8573.35102578105
 -3601.25932010965 -1261531.06403663 -8708.40518484700
 -2198.42273305646 -1261533.61685826 -8805.19125057932
 -738.896443359169 -1261534.96394399 -8855.48970059453
 738.898809411266 -1261534.96393944 -8855.49015178355
 2198.42519338526 -1261533.61684382 -8805.19270508181
 3601.26167818732 -1261531.06401662 -8708.40710884711
 4903.73707267251 -1261527.59854419 -8573.35366137126
 6054.91872110534 -1261523.67319890 -8413.72907816669
 6997.25798794785 -1261519.88043516 -8249.88281487186
 7671.29837150484 -1261516.87313212 -8109.30966326222
 8024.79984541755 -1261515.21425766 -8024.81793253984
 -2683.18050176551 -1261560.55420010 -2683.19728777335
 -2566.06626086629 -1261560.73938559 -2710.54676792640
 -2342.29921637998 -1261561.07540228 -2756.37137700927
 -2028.57818149072 -1261561.50034498 -2810.09552276655
 -1644.23109669031 -1261561.94158433 -2862.68563046374
 -1208.31208199130 -1261562.33229091 -2907.34338760887
 -737.966347702740 -1261562.62075351 -2939.42888412412
 -248.090554761661 -1261562.77318063 -2956.12835036955
 248.092811459270 -1261562.77317897 -2956.12887190999
 737.968703460115 -1261562.62074896 -2939.43024419581
 1208.31429252434 -1261562.33228459 -2907.34521431196
 1644.23293138634 -1261561.94157682 -2862.68788732968
 2028.58023113653 -1261561.50033568 -2810.09821758080
 2342.30167958616 -1261561.07539127 -2756.37432297198
 2566.06895265599 -1261560.73937321 -2710.54998255881
 2683.18308578639 -1261560.55418716 -2683.20078833884
 2683.18156676380 -1261560.55426768 2683.16445054470
 2566.06743946565 -1261560.73945487 2710.51340548514
 2342.30043098626 -1261561.07547456 2756.33726322572
 2028.57931252615 -1261561.50042109 2810.06053645433
 1644.23214273908 -1261561.94166462 2862.64964991774
 1208.31361793882 -1261562.33237385 2907.30676119778
 737.968311244833 -1261562.62083960 2939.39144274920
 248.092702804724 -1261562.77327027 2956.08991539042
 -248.090346095557 -1261562.77327184 2956.08944254738
 -737.966026524032 -1261562.62084394 2939.39015017732
 -1208.31157068450 -1261562.33237979 2907.30503553521
 -1644.23042332338 -1261561.94167103 2862.64781139285
 -2028.57726526711 -1261561.50042965 2810.05817021159
 -2342.29795891604 -1261561.07548467 2756.33473857486
 -2566.06475502357 -1261560.73946636 2710.51060311909
 -2683.17885805024 -1261560.55427990 2683.16141297426
 8024.79847587329 -1261515.21450268 8024.78078333563
 7671.29691082669 -1261516.87338089 8109.27234547663
 6997.25679307940 -1261519.88068832 8249.84511697584
 6054.91787241310 -1261523.67345761 8413.69089793880
 4903.73629523689 -1261527.59881093 8573.31485617004
 3601.26091699830 -1261531.06428730 8708.36821145332
 2198.42477489470 -1261533.61711663 8805.15372338197
 738.898680678170 -1261534.96421356 8855.45111194791
 -738.896254787720 -1261534.96421742 8855.45076324620
 -2198.42249263187 -1261533.61712883 8805.15254591101
 -3601.25890583442 -1261531.06430161 8708.36697069959
 -4903.73444499801 -1261527.59882863 8573.31331091755
 -6054.91575478954 -1261523.67348101 8413.68891340506
 -6997.25429133911 -1261519.88071604 8249.84300036697
 -7671.29430313350 -1261516.87341299 8109.26981868782
 -8024.79575390936 -1261515.21453529 8024.77837948697
 13285.5464297845 -1261426.34343920 13285.5279395801
 12688.6021296729 -1261430.90980988 13434.6593246517
 11555.7360028996 -1261439.16857237 13679.1767239279
 9981.73748422528 -1261449.52065359 13960.7549429654
 8070.54834197680 -1261460.15999050 14232.4251328142
 5918.99743475721 -1261469.49524137 14460.6003954702
 3609.98352785999 -1261476.34065802 14623.2998308017
 1212.76447459547 -1261479.94295850 14707.6046554854
 -1212.76189815192 -1261479.94296310 14707.6044736206
 -3609.98123511761 -1261476.34067538 14623.2988985085
 -5918.99532760163 -1261469.49526149 14460.5995031104
 -8070.54629641098 -1261460.16001740 14232.4239087086
 -9981.73522904682 -1261449.52068893 13960.7533618894
 -11555.7334740616 -1261439.16861515 13679.1749147098
 -12688.5995239725 -1261430.90985762 13434.6573032390
 -13285.5436565604 -1261426.34348673 13285.5262000221
 18388.6143581331 -1261298.20000992 18388.5951796407
 17534.3019712238 -1261307.03852003 18615.4170826004
 15927.4120435237 -1261322.93976859 18978.6742971580
 13718.8608850329 -1261342.65301960 19389.0548618293
 11063.7190415248 -1261362.68036284 19779.1210067834
 8097.91931735059 -1261380.08428011 20103.1739581876
 4932.22865046084 -1261392.75864293 20332.5473731361
 1655.85168176037 -1261399.40132105 20450.9026956067
 -1655.84910613024 -1261399.40132684 20450.9025469894
 -4932.22632281039 -1261392.75866092 20332.5468211909
 -8097.91695172778 -1261380.08430817 20103.1731501158
 -11063.7168067629 -1261362.68039629 19779.1201235203
 -13718.8583816043 -1261342.65306551 19389.0536470780
 -15927.4095180619 -1261322.93982053 18978.6729646394
 -17534.2993519762 -1261307.03857751 18615.4156550768
 -18388.6116486994 -1261298.20006866 18388.5938598700
 23219.6060326638 -1261138.82329925 23219.5861727352
 22082.9639896923 -1261153.23354198 23543.4735540003
 19979.9224846881 -1261178.85636394 24044.2483146252
 17139.7836028051 -1261210.03864044 24594.6573382729
 13774.8964932974 -1261241.17680089 25107.3114343516
 10056.2023186360 -1261267.87981500 25527.2219570447
 6114.58794032402 -1261287.15242138 25821.7325141173
 2051.08670582250 -1261297.20180642 25972.9220067637
 -2051.08394865849 -1261297.20181230 25972.9219390499
 -6114.58535660437 -1261287.15244034 25821.7322000787
 -10056.1998050719 -1261267.87984818 25527.2213081591
 -13774.8940799060 -1261241.17683869 25107.3108596568
 -17139.7810090401 -1261210.03869142 24594.6565313157
 -19979.9199693057 -1261178.85642062 24044.2474316173
 -22082.9613594279 -1261153.23360621 23543.4725805720
 -23219.6034183410 -1261138.82336362 23219.5852908233
 27602.5588314520 -1260962.18402351 27602.5384262847
 26139.9735503639 -1260983.48722648 28049.5569284619
 23516.3756471383 -1261020.37567618 28705.8029826318
 20068.1623172108 -1261063.94747777 29401.0229745412
 16062.1438010799 -1261106.44948017 30032.6744561368
 11691.7767772560 -1261142.31296193 30541.7702791967
 7096.00689700823 -1261167.93430417 30895.2923278477
 2378.18924340177 -1261181.22008011 31075.7984954848
 -2378.18626692952 -1261181.22008811 31075.7983983982
 -7096.00401898459 -1261167.93432751 30895.2920359299
 -11691.7741302351 -1261142.31299659 30541.7698612221
 -16062.1411188245 -1261106.44952357 30032.6740682995
 -20068.1595870334 -1261063.94753040 29401.0225807190
 -23516.3729984178 -1261020.37573639 28705.8025074971
 -26139.9709359622 -1260983.48729233 28049.5564047994
 -27602.5563862328 -1260962.18408784 27602.5379324685
 31256.5041334350 -1260791.61407551 31256.4832502130
 29396.8129250155 -1260821.36199444 31855.1635892539
 26251.5704239663 -1260869.89956264 32670.8179591619
 22272.8169468121 -1260924.76685152 33497.5355009275
 17753.8325054163 -1260976.83582195 34229.4006780128
 12888.0999984726 -1261020.05274748 34810.2623680445
 7809.23335338464 -1261050.63375465 35210.0255664878
 2615.20054928352 -1261066.41291168 35413.1878135019
 -2615.19727607112 -1261066.41291974 35413.1877679660
 -7809.23022507308 -1261050.63378377 35210.0252171272
 -12888.0970865100 -1261020.05278728 34810.2620042518
 -17753.8297010038 -1260976.83586872 34229.4004099363
 -22272.8142249386 -1260924.76690483 33497.5353042366
 -26251.5678063580 -1260869.89962096 32670.8178117282
 -29396.8104035743 -1260821.36205800 31855.1634002797
 -31256.5017510922 -1260791.61413750 31256.4831322839
 33681.8682612210 -1260666.68705240 33681.8471243079
 31361.9870877612 -1260706.26191984 34432.2209707083
 27808.8965815015 -1260763.76752151 35366.9152575852
 23489.4377052174 -1260825.74164684 36278.4569122669
 18671.6113632744 -1260883.25788825 37070.3631647695
 13531.0088664678 -1260930.45425682 37692.6020021159
 8190.56290135265 -1260963.64983889 38118.4913564911
 2741.63230860635 -1260980.72693196 38334.3276631881
 -2741.62891395555 -1260980.72694560 38334.3274572093
 -8190.55962642701 -1260963.64986990 38118.4910342438
 -13531.0057991646 -1260930.45429932 37692.6016817086
 -18671.6085177387 -1260883.25793623 37070.3629659636
 -23489.4349959747 -1260825.74169320 36278.4570554481
 -27808.8939915777 -1260763.76758091 35366.9151765776
 -31361.9846397686 -1260706.26197984 34432.2210034600
 -33681.8659182919 -1260666.68711351 33681.8471799232
 -34432.2404098743 -1260706.26100434 -31362.0025471929
 -31983.3217811116 -1260755.15627674 -31983.3389189846
 -28294.6960399278 -1260821.95397615 -32815.2627099076
 -23858.2057458473 -1260891.61649450 -33653.3563174638
 -18941.1684769942 -1260955.09977908 -34393.3045345782
 -13714.6924036675 -1261006.64288196 -34979.7761400121
 -8297.34834257709 -1261042.67224878 -35383.0990319030
 -2776.66682090700 -1261061.14674401 -35587.9925396165
 2776.66922904432 -1261061.14672432 -35587.9930493011
 8297.35081111052 -1261042.67219709 -35383.1002950556
 13714.6951100324 -1261006.64279238 -34979.7783080282
 18941.1715894922 -1260955.09965274 -34393.3074525705
 23858.2087890107 -1260891.61633720 -33653.3600534732
 28294.6986624328 -1260821.95380525 -32815.2670151141
 31983.3243754381 -1260755.15608739 -31983.3437887080
 34432.2430032814 -1260706.26080228 -31362.0078223306
 -31855.1829018050 -1260821.36114531 -29396.8284163811
 -29924.4494301166 -1260856.25054871 -29924.4665365124
 -26682.1756860236 -1260911.23104771 -30665.2871722744
 -22607.7815061366 -1260972.00307498 -31431.2996136721
 -18002.0907086746 -1261028.87284987 -32117.5573177974
 -13058.6061547322 -1261075.66457072 -32666.0672832728
 -7908.78554460693 -1261108.60085288 -33045.1037985349
 -2647.92420004307 -1261125.54703153 -33238.1413560254
 2647.92673206280 -1261125.54701579 -33238.1417515614
 7908.78812393050 -1261108.60080378 -33045.1050551081
 13058.6089431964 -1261075.66448749 -32666.0693816849
 18002.0935990240 -1261028.87273341 -32117.5602702043
 22607.7845068226 -1260972.00292719 -31431.3033844199
 26682.1782226503 -1260911.23089166 -30665.2913816778
 29924.4519919567 -1260856.25037301 -29924.4713777578
 31855.1853858211 -1260821.36096133 -29396.8336155483
 -28049.5759445739 -1260983.48648014 -26139.9891482885
 -26551.5274069316 -1261007.32067335 -26551.5445788761
 -23867.0240938013 -1261048.04239388 -27159.3603464779
 -20349.4030654982 -1261095.54142169 -27809.4969420792
 -16274.7394940836 -1261141.44456751 -28404.5870859280
 -11839.5736632634 -1261179.93121099 -28886.6149809853
 -7182.90146213977 -1261207.31413612 -29222.3820912491
 -2406.84237786472 -1261221.48102760 -29394.1120510598
 2406.84498785006 -1261221.48101397 -29394.1124221102
 7182.90403774300 -1261207.31409062 -29222.3834220469
 11839.5761985200 -1261179.93113892 -28886.6170884213
 16274.7421809653 -1261141.44446488 -28404.5901034163
 20349.4057694888 -1261095.54129712 -27809.5006123082
 23867.0265260264 -1261048.04225733 -27159.3645489677
 26551.5299624288 -1261007.32052058 -26551.5492788004
 28049.5783705850 -1260983.48632417 -26139.9940690814
 -23543.4921481386 -1261153.23292016 -22082.9796779130
 -22389.2254376438 -1261168.85281727 -22389.2426585135
 -20249.3899709001 -1261196.58450366 -22859.7541778326
 -17361.8205079309 -1261230.13010396 -23378.5590993407
 -13946.0633258924 -1261263.43793891 -23863.7456237968
 -10176.7660880045 -1261291.87665450 -24262.4449779464
 -6186.03279929459 -1261312.34042808 -24542.6934338584
 -2074.73227872964 -1261322.99241673 -24686.7414990108
 2074.73484081971 -1261322.99240522 -24686.7418715418
 6186.03536728625 -1261312.34038708 -24542.6948940024
 10176.7685826310 -1261291.87659449 -24262.4470512214
 13946.0657588644 -1261263.43785476 -23863.7486493807
 17361.8230633650 -1261230.13000070 -23378.5627719818
 20249.3923907874 -1261196.58439097 -22859.7582510555
 22389.2279361693 -1261168.85269286 -22389.2471678907
 23543.4943987982 -1261153.23279734 -22082.9842925454
 -18615.4351015967 -1261307.03803520 -17534.3177171270
 -17752.3829943334 -1261316.42980968 -17752.4000952153
 -16123.5835652569 -1261333.40471668 -18097.0472121376
 -13883.8705794503 -1261354.40304064 -18486.1836701789
 -11193.0268331805 -1261375.66577601 -18856.7456734436
 -8190.07073707236 -1261394.08945761 -19165.1961031537
 -4987.24078358388 -1261407.47769381 -19383.8480819109
 -1674.12281666507 -1261414.48545937 -19496.7716561971
 1674.12544998655 -1261414.48544919 -19496.7720890504
 4987.24333563018 -1261407.47765906 -19383.8496863386
 8190.07316436381 -1261394.08941034 -19165.1981770991
 11193.0290913154 -1261375.66571502 -18856.7484130726
 13883.8729192355 -1261354.40296327 -18486.1871918565
 16123.5859392064 -1261333.40462922 -18097.0511930656
 17752.3854100474 -1261316.42971436 -17752.4044517663
 18615.4372756820 -1261307.03794357 -17534.3220002959
 -13434.6766629585 -1261430.90946722 -12688.6178367925
 -12833.5109196847 -1261435.70287125 -12833.5278915030
 -11687.9999135749 -1261444.43993279 -13067.0019367833
 -10094.6094906266 -1261455.39135152 -13335.1193612797
 -8160.08377275981 -1261466.62619845 -13593.9302367340
 -5983.38997989184 -1261476.46478904 -13811.5439632235
 -3648.65360588536 -1261483.66814098 -13966.8629046296
 -1225.64504641973 -1261487.45512333 -14047.3940511227
 1225.64748626294 -1261487.45511570 -14047.3945235170
 3648.65602981946 -1261483.66811683 -13966.8644527948
 5983.39234228074 -1261476.46475509 -13811.5460404928
 8160.08576909450 -1261466.62615808 -13593.9327839885
 10094.6116369885 -1261455.39129962 -13335.1226458031
 11688.0023309000 -1261444.43987183 -13067.0056598006
 12833.5132942532 -1261435.70280491 -12833.5320380917
 13434.6788767659 -1261430.90940300 -12688.6218774572
 -8109.28909348905 -1261516.87317793 -7671.31258155517
 -7753.92249095870 -1261518.60233092 -7753.93951433268
 -7073.34455089286 -1261521.76652033 -7888.68247893112
 -6120.44152993745 -1261525.76169114 -8045.10435133950
 -4956.12689402312 -1261529.89243637 -8197.45171605210
 -3639.17103925025 -1261533.53423634 -8326.42481854953
 -2221.28420137660 -1261536.21379265 -8418.91353842968
 -746.527884535359 -1261537.62667723 -8467.00021508776
 746.530191832520 -1261537.62667155 -8467.00085791011
 2221.28653497079 -1261536.21377879 -8418.91499832370
 3639.17324833998 -1261533.53421656 -8326.42685002428
 4956.12870445404 -1261529.89241253 -8197.45429087267
 6120.44348937915 -1261525.76166319 -8045.10724365011
 7073.34687999535 -1261521.76648571 -7888.68592612251
 7753.92496858735 -1261518.60229301 -7753.94320562689
 8109.29139494608 -1261516.87313968 -7671.31643850821
 -2710.52979284985 -1261560.73938763 -2566.08318787409
 -2592.89339528430 -1261560.93179748 -2592.91053982687
 -2367.10801887627 -1261561.28444085 -2636.91458675654
 -2050.03597800720 -1261561.73114211 -2688.26880422840
 -1661.45504002137 -1261562.19468897 -2738.50646451374
 -1220.81386256878 -1261562.60469311 -2781.18183526053
 -745.520797494663 -1261562.90709951 -2811.85851696151
 -250.614878626443 -1261563.06678853 -2827.83066333164
 250.617169605852 -1261563.06678686 -2827.83120319939
 745.523079370968 -1261562.90709499 -2811.85994122666
 1220.81594042444 -1261562.60468697 -2781.18370698850
 1661.45673260102 -1261562.19468167 -2738.50879949871
 2050.03787196811 -1261561.73113345 -2688.27142566669
 2367.11037989762 -1261561.28442993 -2636.91769206397
 2592.89592728289 -1261560.93178539 -2592.91388817116
 2710.53211189141 -1261560.73937558 -2566.08666320618
 2710.53073141875 -1261560.73945262 2566.05024633618
 2592.89455292576 -1261560.93186375 2592.87714005925
 2367.10916984482 -1261561.28450978 2636.88057257475
 2050.03701483208 -1261561.73121513 2688.23374452081
 1661.45598925251 -1261562.19476566 2738.47056027199
 1220.81533436487 -1261562.60477244 2781.14520587792
 745.522720505536 -1261562.90718171 2811.82113032840
 250.617071575354 -1261563.06687413 2827.79227960201
 -250.614708868582 -1261563.06687556 2827.79185221920
 -745.520428067584 -1261562.90718586 2811.81987543826
 -1220.81338338042 -1261562.60477803 2781.14352364708
 -1661.45434028292 -1261562.19477230 2738.46849975787
 -2050.03512354015 -1261561.73122337 2688.23132287977
 -2367.10683341062 -1261561.28451969 2636.87792979301
 -2592.89198828716 -1261560.93187509 2592.87418535631
 -2710.52825415648 -1261560.73946417 2566.04718457020
 8109.29015429333 -1261516.87337421 7671.27918266312
 7753.92364073702 -1261518.60253127 7753.90576867020
 7073.34574140181 -1261521.76672855 7888.64811284763
 6120.44266208104 -1261525.76191074 8045.06905508062
 4956.12801385483 -1261529.89266652 8197.41562139007
 3639.17259850708 -1261533.53447467 8326.38802892375
 2221.28616467077 -1261536.21403993 8418.87596625879
 746.530042809096 -1261537.62693358 8466.96183109959
 -746.527642935082 -1261537.62693796 8466.96138999850
 -2221.28395326550 -1261536.21405120 8418.87486082928
 -3639.17057258046 -1261533.53449024 8326.38655517850
 -4956.12622219838 -1261529.89268473 8197.41390191231
 -6120.44063704744 -1261525.76193389 8045.06696587047
 -7073.34341940764 -1261521.76675598 7888.64580889462
 -7753.92111861587 -1261518.60256193 7753.90330388647
 -8109.28757274135 -1261516.87340593 7671.27669529307
 13434.6777737203 -1261430.90979867 12688.5837101169
 12833.5120689563 -1261435.70320836 12833.4936072573
 11688.0012190225 -1261444.44028209 13066.9670490405
 10094.6107635620 -1261455.39171840 13335.0836917742
 8160.08503566679 -1261466.62658421 13593.8936812033
 5983.39172749987 -1261476.46518795 13811.5067719898
 3648.65559331014 -1261483.66855352 13966.8251249511
 1225.64737954395 -1261487.45555146 14047.3554012182
 -1225.64494163232 -1261487.45555717 14047.3551005870
 -3648.65337305344 -1261483.66856989 13966.8242258923
 -5983.38957052446 -1261476.46521066 13811.5056315950
 -8160.08316241224 -1261466.62661101 13593.8923187063
 -10094.6086620836 -1261455.39175361 13335.0819515283
 -11687.9988420980 -1261444.44032337 13066.9651905902
 -12833.5095983503 -1261435.70325422 12833.4915697064
 -13434.6752155730 -1261430.90984555 12688.5817578772
 18615.4362510396 -1261307.03850341 17534.2828168165
 17752.3842144063 -1261316.43028497 17752.3651056830
 16123.5848721879 -1261333.40520980 18097.0116782461
 13883.8720005501 -1261354.40355354 18486.1476064423
 11193.0283483988 -1261375.66631483 18856.7087312771
 8190.07258508947 -1261394.09001588 19165.1585702889
 4987.24294956061 -1261407.47826994 19383.8100328151
 1674.12524452824 -1261414.48605831 19496.7326975694
 -1674.12273205233 -1261414.48606146 19496.7327092648
 -4987.24057420489 -1261407.47828916 19383.8093929236
 -8190.07031143466 -1261394.09004340 19165.1577301602
 -11193.0261449755 -1261375.66635077 18856.7076345882
 -13883.8697490976 -1261354.40359760 18486.1462909658
 -16123.5824751371 -1261333.40526040 18097.0102869787
 -17752.3817581135 -1261316.43034201 17752.3635093074
 -18615.4337567792 -1261307.03856012 17534.2813853082
 23543.4933587870 -1261153.23351951 22082.9441581317
 22389.2267489215 -1261168.85342771 22389.2069617316
 20249.3913166947 -1261196.58513678 22859.7180557184
 17361.8220515106 -1261230.13075933 23378.5225968403
 13946.0649778889 -1261263.43862119 23863.7085978244
 10176.7680266836 -1261291.87736707 24262.4071218509
 6186.03507021376 -1261312.34116119 24542.6551849880
 2074.73480477053 -1261322.99317759 24686.7024115842
 -2074.73207292312 -1261322.99318349 24686.7023401465
 -6186.03245380027 -1261312.34118421 24542.6546616572
 -10176.7655823114 -1261291.87739783 24262.4065476415
 -13946.0625956066 -1261263.43866591 23863.7076261391
 -17361.8196281330 -1261230.13081033 23378.5216452912
 -20249.3888209541 -1261196.58519370 22859.7171260465
 -22389.2242895909 -1261168.85348985 22389.2059205550
 -23543.4909384839 -1261153.23358042 22082.9432599786
 28049.5772491760 -1260983.48719750 26139.9531430517
 26551.5287380466 -1261007.32140540 26551.5084808836
 23867.0254374040 -1261048.04315499 27159.3238260404
 20349.4047355358 -1261095.54220794 27809.4600651409
 16274.7413204121 -1261141.44538535 28404.5497279733
 11839.5757178934 -1261179.93205888 28886.5771202446
 7182.90384028471 -1261207.31501342 29222.3436434898
 2406.84506806449 -1261221.48193625 29394.0728430638
 -2406.84206513249 -1261221.48194036 29394.0729127736
 -7182.90103109784 -1261207.31503893 29222.3432330373
 -11839.5730828469 -1261179.93209776 28886.5765031213
 -16274.7387489983 -1261141.44543212 28404.5491248805
 -20349.4021371168 -1261095.54226353 27809.4594459568
 -23867.0229163494 -1261048.04321508 27159.3232517767
 -26551.5263223018 -1261007.32146920 26551.5078663926
 -28049.5749785366 -1260983.48725748 26139.9526863536
 31855.1843157477 -1260821.36195462 29396.7921729025
 29924.4507648414 -1260856.25138162 29924.4301077190
 26682.1770697212 -1260911.23191319 30665.2503811654
 22607.7832782042 -1260972.00396791 31431.2625159525
 18002.0927256949 -1261028.87377774 32117.5197562709
 13058.6084703803 -1261075.66552990 32666.0293285762
 7908.78805756783 -1261108.60184760 33045.0652353840
 2647.92700237008 -1261125.54805950 33238.1021293006
 -2647.92378756834 -1261125.54806568 33238.1021511615
 -7908.78497575445 -1261108.60187506 33045.0649247747
 -13058.6055920345 -1261075.66557318 32666.0288082620
 -18002.0900303083 -1261028.87382524 32117.5194021939
 -22607.7807007492 -1260972.00402233 31431.2621867379
 -26682.1746084047 -1260911.23197134 30665.2501317263
 -29924.4484222626 -1260856.25144141 29924.4299309215
 -31855.1820699710 -1260821.36201660 29396.7919483746
 34432.2419370019 -1260706.26187018 31361.9660649724
 31983.3231271261 -1260755.15717115 31983.3023163187
 28294.6974821465 -1260821.95490452 32815.2257967336
 23858.2075379801 -1260891.61745440 33653.3190823909
 18941.1706366858 -1260955.10077277 34393.2669135624
 13714.6947552863 -1261006.64390905 34979.7381914934
 8297.35087390662 -1261042.67331259 35383.0605241061
 2776.66961789796 -1261061.14784321 35587.9533712332
 -2776.66627780468 -1261061.14785268 35587.9532963785
 -8297.34766548810 -1261042.67334626 35383.0600767638
 -13714.6917315415 -1261006.64395561 34979.7376988077
 -18941.1679079482 -1260955.10082376 34393.2665469447
 -23858.2049670474 -1260891.61750873 33653.3188694673
 -28294.6950479703 -1260821.95496133 32815.2257130019
 -31983.3208504127 -1260755.15722965 31983.3022867232
 -34432.2397196649 -1260706.26192790 31361.9661792257
 -35366.9349146546 -1260763.76662526 -27808.9122152260
 -32815.2453387002 -1260821.95404148 -28294.7132752591
 -28983.8629805002 -1260900.19481105 -28983.8805395229
 -24401.3323489266 -1260980.45162941 -29703.6446759075
 -19347.5470100642 -1261052.65404236 -30353.0406443338
 -13995.5705046612 -1261110.74941116 -30874.4659033581
 -8461.97073139521 -1261151.12157610 -31235.7890508892
 -2830.87941719755 -1261171.75501905 -31420.0792940018
 2830.88190077256 -1261171.75500713 -31420.0795489375
 8461.97316173061 -1261151.12152832 -31235.7903217707
 13995.5729723278 -1261110.74933491 -30874.4678995204
 19347.5495527948 -1261052.65393772 -30353.0433711659
 24401.3350201464 -1260980.45149114 -29703.6483514500
 28983.8653653462 -1260900.19466321 -28983.8845863051
 32815.2476931119 -1260821.95387341 -28294.7180341706
 35366.9370250256 -1260763.76645770 -27808.9171277145
 -32670.8374393957 -1260869.89873144 -26251.5861032643
 -30665.2697836565 -1260911.23110600 -26682.1929159177
 -27308.4034566402 -1260974.99268068 -27308.4209277288
 -23108.5934526705 -1261044.38873558 -27972.7271837093
 -18380.4532590361 -1261108.59263770 -28578.0935738803
 -13321.7195741073 -1261160.99626341 -29067.2360298921
 -8063.54555443098 -1261197.68865093 -29407.4870330925
 -2698.97259022861 -1261216.51117195 -29581.3862616902
 2698.97498760102 -1261216.51115859 -29581.3866124280