# OOMMF OVF 2.0
#
# Segment count: 1
#
# Begin: Segment
# Begin: Header
#
# Title: Oxs_MinDriver::Magnetization
# Desc: Oxs vector field output
# Desc:  MIF source file: C:/Users/grl31/Documents/GitHub/phd-work/Skyrmions/stdprob3/drive-24/stdprob3.mif
# Desc:  Iteration: 468, State id: 1013
# Desc:  Stage: 0, Stage iteration: 468
# Desc:  Stage simulation time: -1 s
# Desc:  Total simulation time: -2 s
# meshunit: m
# meshtype: rectangular
# xbase: 3.1249999999999999e-09
# ybase: 3.1249999999999999e-09
# zbase: 3.1249999999999999e-09
# xnodes: 16
# ynodes: 16
# znodes: 16
# xstepsize: 6.2499999999999997e-09
# ystepsize: 6.2499999999999997e-09
# zstepsize: 6.2499999999999997e-09
# xmin: 0
# ymin: 0
# zmin: 0
# xmax: 9.9999999999999995e-08
# ymax: 9.9999999999999995e-08
# zmax: 9.9999999999999995e-08
# valuedim: 3
# valuelabels: Magnetization_x Magnetization_y Magnetization_z
# valueunits: A/m A/m A/m
#
# End: Header
#
# Begin: Data Text
 511659.324835035 -1145347.89472123 133911.785463238
 643829.774852071 -1081445.11628872 86655.1348055580
 797592.592933361 -976926.246091944 31789.8775319010
 936175.575118911 -845487.492628848 -16601.9058519027
 1047922.84640423 -700642.675391721 -50069.7545723627
 1132746.05833867 -551601.376753078 -64588.8488925282
 1194118.43533495 -402548.547713024 -59877.0410617577
 1235037.02381517 -254538.297547333 -37989.9434905876
 1256980.35098511 -107449.858471742 -2087.12019532263
 1260166.45096065 39589.8308062097 44301.1522303898
 1243498.82063724 188976.598253859 97713.6597673839
 1203692.34499356 344535.068791175 154821.690650590
 1134773.97355929 508969.531619808 211630.517019921
 1030685.69376125 678718.211255495 261874.056189217
 895342.664308133 837942.532137387 296248.640880851
 765142.778355512 954858.098498900 307167.660049731
 437490.794419301 -1173748.74157605 149883.712810825
 543511.751354607 -1132963.36918198 111975.046998065
 687196.710916733 -1056109.22409700 62796.6416412281
 834699.596294767 -945860.046444982 13220.7187173787
 968033.195751559 -808508.940868080 -27829.0384015306
 1078748.42174814 -651897.088576196 -53679.2269014153
 1163928.63880634 -482799.036761798 -61029.8679931177
 1222799.28469236 -306334.232491818 -49705.9179419966
 1254981.09494679 -126854.225935487 -21906.3371519460
 1260347.71194152 52320.4961327507 18320.5242054799
 1238519.24019509 230816.836964805 65902.2788612369
 1187136.18761256 410942.408084775 115686.819548106
 1101411.25064143 593391.482137358 162262.863299834
 978411.357185537 771159.827929426 198930.055137900
 828664.326455252 925923.813306906 218013.662256786
 696195.046257902 1029509.25384444 216731.596066589
 342432.257699393 -1205136.17682727 148109.334979282
 421268.017398330 -1183200.78327001 118821.693749391
 543241.228990892 -1135986.70429272 77282.6352655517
 688215.743916398 -1056910.93002712 29117.1209730178
 840193.651969183 -940881.349892208 -19140.1027859847
 984644.310896570 -786428.936713769 -59619.9583799133
 1108441.17508081 -596414.181796226 -84839.3544103636
 1200147.19836377 -378434.235873367 -89351.3418897251
 1251104.16407819 -145508.039924685 -71520.7093256755
 1258062.47285091 86991.7467962986 -35506.0743047758
 1222965.68362777 309522.664782039 10004.3777433434
 1148137.51942000 519800.757568176 56007.4981640830
 1034689.11391325 715494.830985324 95052.6974980076
 888155.519582473 887748.104058029 120964.902742552
 728531.131045230 1021784.95875768 129411.437181917
 601322.132836867 1102294.22863275 122100.601974010
 248049.372542325 -1229997.46887671 130870.799864578
 303545.196812824 -1219738.15786973 107928.544173390
 398828.417184701 -1194665.82439837 72518.2223959279
 527670.441279719 -1145623.62708287 25687.3779921127
 683830.953661699 -1059720.07632385 -30298.8047497217
 856261.176153733 -922153.244699289 -89440.6083462784
 1025712.52754390 -720832.458616544 -140939.023564395
 1164139.34842816 -455471.316291120 -169926.126290970
 1241947.85655931 -149266.413053730 -163812.363516205
 1245735.78158160 155184.275681582 -124938.520830900
 1184958.79191123 427130.721568375 -70579.3105924969
 1075868.89452360 658588.052095626 -17813.7686188860
 932378.076485854 849520.619444942 23135.9146215220
 770362.406966530 997910.055011120 47610.0300293056
 613828.290920291 1100805.80324851 54688.6068502591
 500035.210644501 1157238.49020642 48096.7339788572
 161164.382627042 -1246837.15719887 104750.065010235
 197150.815494141 -1243085.11436820 86141.6583607316
 265378.755088207 -1232145.17554189 54238.4886922989
 369130.215613882 -1206338.34754363 6332.93656191866
 513071.464384090 -1150928.39976140 -60588.1339570023
 697740.619817284 -1040860.39918206 -146003.725262434
 909087.998387794 -841378.720775305 -239144.914921351
 1104051.45378032 -525701.759658776 -310253.893152346
 1214563.18082907 -122370.025765613 -318451.389520367
 1204727.56341666 270177.765349096 -259200.509208751
 1105139.43723912 583153.648071607 -173632.018701978
 959932.657660061 812873.144716103 -96519.2948378681
 797553.512109687 976607.945580272 -41167.3034086329
 637233.890717470 1088763.09621445 -8793.16561599397
 497471.092177538 1159335.42721311 3648.36610474945
 402526.609455726 1195625.31022253 1370.09281016059
 81155.8572239971 -1256735.83553911 74687.3311144826
 100040.161026154 -1256211.82712117 58934.2218214309
 141665.369171195 -1253270.48200332 28168.2984171115
 214449.353185049 -1242979.03460974 -23749.2180524580
 330720.218382505 -1212808.72733749 -106153.468930563
 504358.887568219 -1133557.73993615 -228513.443107316
 738135.632475363 -946848.161473010 -387535.518506796
 987117.072168529 -576783.481982748 -533357.414558232
 1130607.14803978 -44856.9628801819 -557911.068721066
 1096250.54441140 442334.861246964 -440595.103606797
 958450.945093119 768067.308718400 -288086.490566868
 795209.684373117 965063.088918867 -166865.883884440
 638223.524449287 1084682.27959817 -87661.3716765051
 498992.312984156 1157901.06090303 -42675.9377320232
 385803.636607473 1200913.41159566 -22626.5938462523
 311829.067795046 1222258.98288166 -19875.6675892560
 4941.56297886443 -1260787.33968170 44048.7908189961
 7410.62512431892 -1261181.83940593 30247.0082306565
 21560.0751329766 -1261381.74128021 -834.771901460447
 57396.9249711522 -1258899.37124026 -58543.9750417576
 129472.665030480 -1244756.20650180 -159274.123146563
 259208.546983753 -1190559.51496015 -326999.084750077
 468800.834767361 -1018857.27282635 -577672.109287989
 734687.870872987 -586287.046402144 -841457.463293375
 901357.000288654 104301.787733279 -876485.097434768
 858452.108308192 664438.371552709 -642752.720000902
 723443.275171247 957492.881124947 -389084.362476187
 585230.166304071 1096823.90278553 -214551.647966144
 464037.840948395 1167870.19889469 -110894.146015815
 361756.781962905 1207363.49591037 -54358.5353544638
 280355.458463101 1229705.46676998 -27833.6635197354
 227328.797012332 1240740.34716730 -20843.2214172402
 -70512.2824018059 -1259496.76298642 15663.7471941699
 -85141.9356845988 -1258684.91731402 3544.09833921507
 -100813.019008688 -1257221.80825140 -27919.3655798673
 -108626.430966824 -1253622.85655225 -90440.3833701645
 -97947.0636949056 -1240762.31069545 -206069.628985394
 -52112.8517940901 -1191152.29826330 -412298.294853251
 55290.5237464633 -1014228.92791872 -748219.266442430
 241149.866313465 -508280.961090670 -1129179.63030188
 413772.567667085 318115.890609880 -1148539.93108930
 446983.182442099 885063.158028342 -780011.969032389
 403848.223247386 1111486.72025564 -439378.326950982
 344382.021933673 1191973.96042149 -228360.529787727
 284472.158454810 1224100.07746173 -110471.816954431
 228532.070492104 1239778.32516980 -47667.8939613668
 180515.553369103 1248464.15778359 -17343.9511216142
 147405.559824440 1252903.67868700 -7307.78929463104
 -147405.577606137 -1252903.67662740 -7307.78373394775
 -180515.587751789 -1248464.15272657 -17343.9572852728
 -228532.119779280 -1239778.31570568 -47667.9038151521
 -284472.210402491 -1224100.06251146 -110471.848844409
 -344382.088515714 -1191973.93347015 -228360.570055814
 -403848.313286759 -1111486.66044109 -439378.395504279
 -446983.303213846 -885063.026456032 -780012.049116859
 -413772.693445420 -318115.637084752 -1148539.95599632
 -241149.971944021 508281.168823658 -1129179.51423572
 -55290.6068253670 1014229.00564501 -748219.154943370
 52112.7883405601 1191152.32336504 -412298.230353223
 97947.0188623955 1240762.32033170 -206069.592274140
 108626.393408738 1253622.86140740 -90440.3611818120
 100812.982416962 1257221.81129234 -27919.3607726762
 85141.9047835479 1258684.91942103 3544.09238870971
 70512.2600162740 1259496.76426204 15663.7453954598
 -227328.819020614 -1240740.34327234 -20843.2132378870
 -280355.492791564 -1229705.45900525 -27833.6607945834
 -361756.833623501 -1207363.48011863 -54358.5423047135
 -464037.909286359 -1167870.17015099 -110894.162766056
 -585230.252476239 -1096823.85230848 -214551.670962376
 -723443.380344079 -957492.788584363 -389084.394655231
 -858452.212402076 -664438.206773621 -642752.751312968
 -901357.062672036 -104301.572910828 -876485.058844999
 -734687.899131824 586287.186749430 -841457.340832950
 -468800.870766866 1018857.30489773 -577672.023507904
 -259208.585858178 1190559.51742712 -326999.044952818
 -129472.703660763 1244756.20428493 -159274.109069592
 -57396.9522962952 1258899.37020103 -58543.9705989510
 -21560.0984645493 1261381.74087971 -834.774471778941
 -7410.63904766148 1261181.83946967 30247.0021616021
 -4941.57122490573 1260787.33998183 44048.7813034059
 -311829.091346625 -1222258.97709567 -19875.6538994826
 -385803.680642366 -1200913.39754567 -22626.5887193819
 -498992.369170930 -1157901.03707874 -42675.9271733405
 -638223.594657290 -1084682.23889641 -87661.3641483560
 -795209.775390480 -965063.013772077 -166865.884744403
 -958451.035385559 -768067.196781820 -288086.488601985
 -1096250.60701606 -442334.708022617 -440595.101668659
 -1130607.16205359 44857.1215389654 -557911.027565617
 -987117.062637172 576783.562777703 -533357.344825188
 -738135.637071681 946848.176596220 -387535.472802363
 -504358.919745322 1133557.72546723 -228513.443862387
 -330720.248246220 1212808.71786540 -106153.484109603
 -214449.376211271 1242979.02998683 -23749.2520837533
 -141665.375308248 1253270.48187074 28168.2734509732
 -100040.158277720 1256211.82858538 58934.1952766387
 -81155.8446141338 1256735.83818689 74687.3002632049
 -402526.646740569 -1195625.29763525 1370.12312355624
 -497471.144880508 -1159335.40452231 3648.39023849980
 -637233.948543632 -1088763.06262887 -8793.13353983015
 -797553.586224554 -976607.886587315 -41167.2670305494
 -959932.739560502 -812873.051751866 -96519.2632298436
 -1105139.50165150 -583153.533389260 -173631.993895252
 -1204727.59480014 -270177.643494184 -259200.490358221
 -1214563.17802479 122370.125712734 -318451.361809483
 -1104051.43255141 525701.815605838 -310253.873898241
 -909087.991102694 841378.729698692 -239144.911220031
 -697740.638536907 1040860.38228346 -146003.756272876
 -513071.490233171 1150928.38545332 -60588.1868575223
 -369130.231300547 1206338.34306000 6332.87629754634
 -265378.748552022 1232145.17906467 54238.4406451840
 -197150.789076117 1243085.12226105 86141.6049238030
 -161164.353493552 1246837.16610738 104750.003796078
 -500035.260970570 -1157238.46592020 48096.7951085619
 -613828.349748276 -1100805.76720418 54688.6720837697
 -770362.465352210 -997910.006965725 47610.0923448644
 -932378.140450609 -849520.547437564 23135.9808566608
 -1075868.95169937 -658587.960108930 -17813.7162827579
 -1184958.82983074 -427130.622041219 -70579.2762771305
 -1245735.79439661 -155184.183758450 -124938.507231504
 -1241947.84931984 149266.478985216 -163812.358325410
 -1164139.33286750 455471.351670097 -169926.138064718
 -1025712.51766064 720832.464691512 -140939.064421429
 -856261.182993329 922153.231303446 -89440.6809814837
 -683830.979889699 1059720.05665219 -30298.9008235904
 -527670.455628496 1145623.62281477 25687.2735910430
 -398828.407755270 1194665.83322048 72518.1289193025
 -303545.170077805 1219738.17282409 107928.450360196
 -248049.340844492 1229997.48477540 130870.710519001
 -601322.173784585 -1102294.19269151 122100.724782855
 -728531.178860150 -1021784.90974090 129411.555022648
 -888155.569732809 -887748.038817450 120965.013319203
 -1034689.16307599 -715494.746910747 95052.7951992573
 -1148137.55716199 -519800.666641748 56007.5683442835
 -1222965.70292895 -309522.587378398 10004.4130782553
 -1258062.47815849 -86991.6724448588 -35506.0684096058
 -1251104.15783942 145508.087506816 -71520.7216545722
 -1200147.18823849 378434.258588423 -89351.3816840146
 -1108441.16846137 596414.183656850 -84839.4278143936
 -984644.317782936 786428.919937360 -59620.0659416556
 -840193.670111102 940881.330717365 -19140.2489981305
 -688215.751945676 1056910.92908680 29116.9653238526
 -543241.227402000 1135986.71570988 77282.4786118982
 -421267.997951506 1183200.80534181 118821.542909452
 -342432.221006341 1205136.20419624 148109.197118535
 -696195.071543664 -1029509.19935346 216731.773683194
 -828664.350736488 -925923.753750046 218013.822907751
 -978411.380733549 -771159.759309485 198930.205327804
 -1101411.28243024 -593391.391222313 162262.979997188
 -1187136.21129377 -410942.315970503 115686.903748089
 -1238519.25075371 -230816.769085956 65902.3181698031
 -1260347.71416463 -52320.4407093778 18320.5295480522
 -1254981.09071201 126854.265037139 -21906.3533278971
 -1222799.27843990 306334.249052166 -49705.9696962855
 -1163928.63149927 482799.042786552 -61029.9596884868
 -1078748.42196127 651897.077317633 -53679.3593455377
 -968033.202011620 808508.927310565 -27829.2145272571
 -834699.596880632 945860.048739541 13220.5175653712
 -687196.706213511 1056109.24020350 62796.4222311959
 -543511.732214518 1132963.40036712 111974.824370089
 -437490.748905734 1173748.78714159 149883.488832146
 -765142.800481207 -954858.012269983 307167.872985681
 -895342.676973320 -837942.457304807 296248.814267980
 -1030685.69333222 -678718.149531077 261874.217853420
 -1134773.98391672 -508969.453234812 211630.649998030
 -1203692.35700284 -344534.985007740 154821.783730910
 -1243498.82618531 -188976.539303448 97713.7031721161
 -1260166.45210684 -39589.7870005613 44301.1587733557
 -1256980.34857614 107449.886330505 -2087.13677362344
 -1235037.01903244 254538.312466437 -37989.9990150966
 -1194118.42706946 402548.558130443 -59877.1358633838
 -1132746.04920772 551601.378819629 -64588.9913804588
 -1047922.84185695 700642.668937812 -50069.9400548678
 -936175.565207599 845487.499201168 -16602.1300362809
 -797592.569864798 976926.273254575 31789.6215823591
 -643829.731806384 1081445.16463273 86654.8512984274
 -511659.263327439 1145347.95789383 133911.480159913
 515834.477125243 -1134586.67038404 195390.149482335
 659325.438777639 -1064689.89974079 152560.853725926
 821218.644368762 -953207.288179561 92440.4393188143
 961499.298956631 -816029.753162838 34117.0188887868
 1070125.02201976 -668040.635248917 -10177.3190170711
 1149425.12518468 -518811.253888711 -34730.3232284171
 1204775.19206233 -372238.689117888 -38788.2177202765
 1240395.36823988 -228857.748934504 -24349.3761857317
 1258484.90196974 -87946.4950167711 5531.40555622376
 1259591.28769685 52052.6050534389 47641.8427887156
 1242576.31670114 194278.147519057 99043.0688587327
 1203738.34303555 343356.898320045 157065.186470526
 1136193.38986171 502896.959771601 218423.120584763
 1032209.45154171 670136.526944486 277506.962654467
 893516.964899286 828976.090564515 325538.792816610
 757220.865732114 944967.196099609 353840.344950241
 440778.583273584 -1167684.24715012 183785.664304245
 555832.402819202 -1122541.28999063 150002.743846124
 707753.142726475 -1039719.98317390 98067.7136911878
 858879.545170955 -923102.100900531 41926.9497926384
 991236.653361572 -780355.102309174 -6726.23606056968
 1097698.99377115 -620508.184832451 -39698.1428871328
 1177017.05719918 -450958.822045871 -53069.9425299423
 1229938.00453456 -276849.754225969 -46434.3569517587
 1257247.82111451 -102003.962601317 -21737.9584002127
 1259432.72003376 71242.8423131803 17410.1133384951
 1236034.52845435 243610.282443453 66498.9148438592
 1184042.62614276 418306.516239440 120880.721653802
 1097635.21293311 596645.566163466 175386.540605914
 972636.507347108 771835.643288993 223153.299870829
 818739.074950073 924986.895659932 256154.252211935
 682216.952564372 1026175.24580004 270358.697770142
 344559.102575728 -1202398.48752421 164518.488172777
 430538.831208333 -1177764.52899037 138045.137519617
 560294.051373718 -1126392.86979514 94122.8441391975
 710725.703128895 -1041531.78599250 40372.5723502299
 864702.848201518 -918488.237887680 -14757.1031412426
 1007213.34915251 -757123.561162393 -61924.2548660322
 1125569.45511887 -562201.486641132 -92586.8297376746
 1209886.13994747 -342930.374056630 -100616.687638506
 1253726.36522272 -112592.744159764 -83919.6402933550
 1255473.52979276 114888.398255015 -46220.1563720354
 1217136.34586048 331830.590839078 4123.77105791136
 1140076.37517962 537035.378258594 58036.9897126894
 1024393.29125186 728436.835560980 107459.724339166
 875088.248124058 897040.488110752 145218.289496007
 712267.242540006 1027890.03592092 166333.641149064
 583277.744043443 1105297.88901253 172200.699089713
 250469.600069468 -1228661.09964835 138586.841261698
 311964.566006785 -1216791.88069397 116812.069378015
 414352.508718498 -1189025.27541656 77976.4314278734
 549527.673251291 -1135328.65605988 24446.0626531272
 710001.046995362 -1042030.17623543 -40262.3397133619
 882841.076270931 -894616.649010370 -108637.545449047
 1047092.22380759 -683351.609715005 -167862.691687392
 1175297.17432594 -412054.863505672 -201088.966384870
 1241888.24920891 -106533.499157156 -194714.203264977
 1237589.22914329 192727.315064921 -150925.520888045
 1172131.31399547 458264.966127950 -87469.0487541062
 1060178.35727495 683409.702243170 -22857.3962785712
 914673.314146920 868314.757755513 30848.6753431898
 751295.821873931 1011212.27844636 67481.4557715261
 593892.588307037 1109720.39133801 85800.2186566424
 480206.714645371 1163102.05428215 90247.1797514607
 165207.400293540 -1245933.11478442 109117.456398178
 206476.490819131 -1241291.67200869 90065.9461718936
 281276.854304302 -1228653.52955295 53322.2886672190
 391681.454269135 -1199218.26640152 -3258.65455522232
 541231.812707136 -1136598.57521550 -82226.7271073620
 727655.492654109 -1014416.57028299 -181730.396094213
 932514.661553015 -799535.080056985 -287592.581034161
 1111152.84736535 -472662.764409987 -365347.357799588
 1203383.57920103 -69958.0964855383 -372187.126274383
 1183147.67999450 314945.388620069 -304171.662765500
 1079926.62795618 619467.635834525 -203881.723809983
 934038.090032704 840845.278917677 -110006.791648817
 772486.844464368 996629.496923454 -39282.9722722212
 613942.915284697 1102085.47293530 5580.14656230968
 476010.116113266 1167979.23196638 28076.9295331212
 382585.093355365 1201646.40088263 34985.7757815350
 87620.8187736947 -1256043.44890303 78910.5664924405
 111292.997530099 -1255152.15577554 61289.1953913827
 159226.523823156 -1251239.04801891 24437.4659666050
 238965.349939205 -1238142.61677770 -38050.6631512254
 361616.458989148 -1200959.59184201 -135937.582256662
 537148.851569497 -1107214.59025528 -277662.372860182
 760128.879665147 -898480.854755298 -454406.944110839
 979914.540503127 -512456.303741280 -607211.216122796
 1093516.01066453 11454.8017235329 -628999.962525244
 1050925.31120130 484767.621149941 -502101.358970503
 916477.010777192 801492.684458859 -330497.800892516
 758659.191895081 990270.109700000 -188018.007932239
 607335.074565652 1101986.28660367 -91212.7307930918
 473440.989626992 1168880.07757338 -33502.6045556247
 364364.980557844 1207795.06275396 -4321.83400700899
 292913.147327513 1227075.65099184 6055.22787282539
 14191.7544773745 -1260488.35797241 50170.9521517967
 21071.6007174547 -1260951.20453488 33278.7972167733
 41512.5166585250 -1260874.02827445 -4777.72985620626
 84906.5081810712 -1256507.53429197 -74358.1337512074
 164501.363540237 -1235824.54342728 -192941.520091205
 296858.163943358 -1164785.19742539 -383014.497477342
 491327.828713376 -963169.560897949 -649962.147059662
 710522.605760553 -513340.037167512 -907297.671033627
 831968.484437036 144871.820611199 -937224.640849403
 788247.037392982 684608.610023991 -708185.773678883
 667136.172686712 976665.956845348 -438864.861604618
 541312.456344808 1113659.58496188 -241438.572617223
 430145.604744677 1179979.63981821 -119047.214382728
 335809.368871040 1215033.76202782 -49743.9024395936
 260012.962922530 1234392.34606370 -14772.4747603417
 210210.826570626 1243928.73750800 -1461.27109185855
 -58414.2438832076 -1259962.87945928 25114.7250669964
 -68963.6931663609 -1259648.95883538 8828.38879648240
 -78253.6207525072 -1258775.32610999 -30174.1633646546
 -77656.5831223952 -1254773.47707731 -105177.978874068
 -57395.3529382502 -1237281.35957522 -239562.187391393
 -4471.99682266172 -1171607.18673762 -467831.200485960
 95487.7026031995 -962315.329507326 -810173.275395901
 237998.848424509 -448792.942271541 -1154768.75348912
 354453.356294895 310226.370267530 -1170329.80322680
 377464.957973391 864208.219301184 -837981.974814122
 345723.586861896 1108980.05344939 -492125.871558976
 299436.711596608 1197787.66949419 -259213.783342690
 250826.831884653 1230304.79267231 -122415.066283510
 203753.074840165 1244119.04280283 -46924.6496790804
 162016.184619795 1251089.72633203 -8641.96196775297
 132621.617296059 1254558.65603359 6596.67461124592
 -132621.641193377 -1254558.65344652 6596.68618251409
 -162016.213103058 -1251089.72262855 -8641.96412304718
 -203753.114638199 -1244119.03563465 -46924.6669216248
 -250826.889254719 -1230304.77790295 -122415.097169122
 -299436.773019107 -1197787.64403812 -259213.830017727
 -345723.670303596 -1108979.99879092 -492125.936110327
 -377465.077224543 -864208.087778300 -837982.056737134
 -354453.487823853 -310226.156020167 -1170329.82018293
 -237998.969232799 448793.132626758 -1154768.65461015
 -95487.7882614472 962315.406094222 -810173.174331021
 4471.93731043572 1171607.21312312 -467831.134976618
 57395.3103868785 1237281.37013219 -239562.143061804
 77656.5522081768 1254773.48150258 -105177.948905601
 78253.5933819244 1258775.32774378 -30174.1661909256
 68963.6765157045 1259648.95973931 8828.38989086215
 58414.2235874067 1259962.88055175 25114.7174655963
 -210210.845668332 -1243928.73430169 -1461.25321597710
 -260012.997182012 -1234392.33893296 -14772.4675997882
 -335809.426943522 -1215033.74580316 -49743.9067059589
 -430145.678613832 -1179979.61066950 -119047.236394027
 -541312.543824487 -1113659.53591602 -241438.602714078
 -667136.274801079 -976665.869908766 -438864.899848285
 -788247.145410430 -684608.458868147 -708185.799573419
 -831968.564006649 -144871.625946643 -937224.600306268
 -710522.653094684 513340.168237421 -907297.559807267
 -491327.867440866 963169.599680268 -649962.060313305
 -296858.210628355 1164785.19955382 -383014.454821018
 -164501.392528608 1235824.54357304 -192941.494442185
 -84906.5283174899 1256507.53295915 -74358.1332803171
 -41512.5265627194 1260874.02793202 -4777.73417172070
 -21071.6088137038 1260951.20467092 33278.7869358165
 -14191.7619336156 1260488.35823849 50170.9433578802
 -292913.177629915 -1227075.64361652 6055.25662469237
 -364365.020929908 -1207795.05063249 -4321.81783195223
 -473441.048450250 -1168880.05405681 -33502.5937716364
 -607335.157984848 -1101986.24136465 -91212.7219058566
 -758659.288535926 -990270.035987500 -188018.006218638
 -916477.105175845 -801492.576653329 -330497.800563127
 -1050925.38835531 -484767.466513212 -502101.346781253
 -1093516.04162269 -11454.6535498854 -628999.911402897
 -979914.536932786 512456.390188711 -607211.148927219
 -760128.885810161 898480.869490677 -454406.904695818
 -537148.874752878 1107214.58127336 -277662.363827592
 -361616.485676016 1200959.58235876 -135937.595046199
 -238965.364951721 1238142.61302995 -38050.6908191828
 -159226.521140056 1251239.04911467 24437.4273444717
 -111292.986513332 1255152.15781541 61289.1736216370
 -87620.8097230274 1256043.45132364 78910.5380126114
 -382585.130514020 -1201646.38771149 34985.8218203144
 -476010.166180095 -1167979.21045277 28076.9756609505
 -613942.980118941 -1102085.43660158 5580.18927353087
 -772486.921162984 -996629.438948495 -39282.9348737534
 -934038.171120101 -840845.193279018 -110006.757743072
 -1079926.69901724 -619467.522735653 -203881.691047614
 -1183147.71727161 -314945.270392579 -304171.640182442
 -1203383.58350080 69958.1966189886 -372187.093550460
 -1111152.83019811 472662.818847903 -365347.339583083
 -932514.652450358 799535.091104487 -287592.579836270
 -727655.503619810 1014416.55629132 -181730.430288431
 -541231.831773206 1136598.56242113 -82226.7784640969
 -391681.462029454 1199218.26369082 -3258.71935017789
 -281276.842426778 1228653.53480144 53322.2303856305
 -206476.475965379 1241291.67840011 90065.8921373880
 -165207.373370703 1245933.12333412 109117.399537365
 -480206.753449356 -1163102.03175188 90247.2636439917
 -593892.636764222 -1109720.35883125 85800.3036802651
 -751295.876571418 -1011212.23248880 67481.5354800874
 -914673.378089766 -868314.687774711 30848.7492050394
 -1060178.41878630 -683409.608717133 -22857.3395616702
 -1172131.35576369 -458264.867291525 -87469.0068585156
 -1237589.24640395 -192727.220254234 -150925.500420996
 -1241888.24461009 106533.558041300 -194714.200379151
 -1175297.15951338 412054.898308584 -201088.981644035
 -1047092.21093789 683351.618807512 -167862.734951243
 -882841.078056777 894616.638065559 -108637.621065530
 -710001.060663519 1042030.16312073 -40262.4381056312
 -549527.683945975 1135328.65338024 24445.9466935785
 -414352.502598681 1189025.28489829 77976.3193649210
 -311964.548247813 1216791.89475345 116811.970353204
 -250469.575684296 1228661.11611763 138586.739322527
 -583277.775069204 -1105297.84925440 172200.849193219
 -712267.280761776 -1027889.98659663 166333.782285991
 -875088.285393175 -897040.429901752 145218.424479356
 -1024393.33538513 -728436.758085490 107459.828807758
 -1140076.41349673 -537035.287780927 58037.0742322295
 -1217136.36787249 -331830.509553889 4123.81501930886
 -1255473.53659452 -114888.328436875 -46220.1451619654
 -1253726.35999472 112592.793377841 -83919.6523628934
 -1209886.13091711 342930.394004235 -100616.728238771
 -1125569.44821746 562201.488487200 -92586.9024277390
 -1007213.34904196 757123.552032353 -61924.3682935327
 -864702.861574001 918488.222935495 -14757.2502006049
 -710725.717663704 1041531.78284183 40372.3977574936
 -560294.052102796 1126392.88477157 94122.6605720169
 -430538.821520531 1177764.55275886 138044.964947582
 -344559.078898607 1202398.51696215 164518.322610977
 -682216.971776179 -1026175.17678237 270358.911255325
 -818739.091564387 -924986.829468367 256154.438129291
 -972636.521454757 -771835.576411301 223153.469695582
 -1097635.23659201 -596645.482421209 175386.677421389
 -1184042.64630139 -418306.430803145 120880.819848656
 -1236034.53857913 -243610.217102612 66498.9660194851
 -1259432.72309822 -71242.7852378258 17410.1252122997
 -1257247.81805798 102003.996689924 -21737.9752201613
 -1229937.99748947 276849.777064799 -46434.4073905239
 -1177017.05069117 450958.828375482 -53070.0330830514
 -1097698.98938650 620508.183470545 -39698.2854151809
 -991236.658153688 780355.094575152 -6726.42712500324
 -858879.553609645 923102.103159674 41926.7271849010
 -707753.147210520 1039720.00314232 98067.4696231448
 -555832.401829036 1122541.32458275 150002.488645748
 -440778.556780378 1167684.29785204 183785.405708272
 -757220.870619126 -944967.100667019 353840.589354491
 -893516.964932417 -828976.009251560 325538.999786926
 -1032209.44702171 -670136.458701831 277507.144262381
 -1136193.39657049 -502896.877927871 218423.274123836
 -1203738.35073035 -343356.821495549 157065.295442387
 -1242576.32180211 -194278.085921280 99043.1256900323
 -1259591.28905785 -52052.5590459170 47641.8570723146
 -1258484.89981983 87946.5267314085 5531.39044995867
 -1240395.36425914 228857.764929889 -24349.4286314926
 -1204775.18658693 372238.696270735 -38788.3191444614
 -1149425.11918560 518811.257115233 -34730.4735735049
 -1070125.01512868 668040.643157512 -10177.5244781426
 -961499.297416305 816029.765116191 34116.7763910808
 -821218.643789632 953207.316302646 92440.1544696880
 -659325.424766302 1064689.95436798 152560.533047053
 -515834.445690468 1134586.74442427 195389.802535590
 527693.816449579 -1113606.95600275 270126.293688949
 677701.218891668 -1039355.86670121 228056.727998704
 845801.076039075 -921973.632468058 161661.967462205
 987591.344000157 -779604.009527587 91816.9728504906
 1093211.86670127 -628692.425188372 34395.9290214519
 1166964.03538323 -479309.622407896 -2580.09849271136
 1216117.22628382 -335118.617909961 -17430.8572600618
 1246173.67553261 -196111.312464950 -11872.4240054771
 1260045.37841785 -60896.0679032534 11258.0709140422
 1258503.05863557 72818.2087307163 49162.9006581827
 1240169.56476748 208856.097304451 99538.9981973769
 1200673.81747575 352393.270856198 160470.550576837
 1132044.60004185 507368.331232625 229350.890334601
 1025211.41902913 670854.944729490 300740.120940357
 881375.405211374 825746.058018914 364513.749635955
 740290.160958175 937007.921047115 406861.234823909
 452660.737090166 -1154143.50378909 233667.414667479
 574470.884528624 -1105008.02819445 201221.001323609
 734049.636579044 -1015686.80434972 145261.410660153
 888878.790210168 -891623.107867517 80325.3431373458
 1019763.91900700 -742423.573210880 20933.6654990313
 1120763.96035212 -578735.084514985 -22433.8593696684
 1192690.24024322 -408711.043725298 -44662.1146444411
 1238223.46891207 -237362.616147951 -44844.8481960243
 1259510.51323685 -67661.0119340177 -24590.3523533473
 1257582.46029647 99332.6285591188 12992.8971818896
 1231653.62517177 265474.483595504 64047.4595896798
 1177783.69949746 434602.600555500 124481.194191847
 1089006.71774833 608101.929507485 189277.159074312
 960326.914657645 778685.214188770 250940.202253191