# OOMMF OVF 2.0
#
# Segment count: 1
#
# Begin: Segment
# Begin: Header
#
# Title: Oxs_MinDriver::Magnetization
# Desc: Oxs vector field output
# Desc:  MIF source file: C:/Users/grl31/Documents/GitHub/phd-work/Skyrmions/stdprob3/drive-38/stdprob3.mif
# Desc:  Iteration: 557, State id: 1184
# Desc:  Stage: 0, Stage iteration: 557
# Desc:  Stage simulation time: -1 s
# Desc:  Total simulation time: -2 s
# meshunit: m
# meshtype: rectangular
# xbase: 3.1249999999999999e-09
# ybase: 3.1249999999999999e-09
# zbase: 3.1249999999999999e-09
# xnodes: 16
# ynodes: 16
# znodes: 16
# xstepsize: 6.2499999999999997e-09
# ystepsize: 6.2499999999999997e-09
# zstepsize: 6.2499999999999997e-09
# xmin: 0
# ymin: 0
# zmin: 0
# xmax: 9.9999999999999995e-08
# ymax: 9.9999999999999995e-08
# zmax: 9.9999999999999995e-08
# valuedim: 3
# valuelabels: Magnetization_x Magnetization_y Magnetization_z
# valueunits: A/m A/m A/m
#
# End: Header
#
# Begin: Data Text
 502149.439293443 -1157285.62019107 -9239.30923859928
 609176.931861761 -1104082.42336605 -38143.1385781556
 745324.402245879 -1015421.17812925 -70432.9279696853
 879948.053909854 -898675.137683070 -98101.2245057580
 998822.913402647 -761741.186051082 -116844.272663628
 1096479.30925914 -611462.519138540 -124081.195087346
 1171555.02874184 -452693.363540166 -118646.382816142
 1223920.11856064 -288844.828344589 -100685.845281460
 1253529.76898724 -122762.612758152 -71706.9737928649
 1260351.21147483 43169.9296307029 -34649.8460106207
 1244356.74434898 207570.842389234 6330.01595523328
 1205223.41738577 369918.714236068 46325.9102646828
 1142570.39131456 528847.828907190 80014.4091423620
 1058164.99299461 679303.197772464 101899.185550145
 961378.761478426 809793.464884496 107400.428898232
 878767.795074972 899895.757016389 97489.5879667494
 447944.501974565 -1179156.77170048 22010.4934657191
 539182.682104908 -1140531.18709603 -4480.79216492221
 667892.023094631 -1069577.45185702 -38389.4631969893
 805997.247299018 -967825.755598082 -72326.8626884972
 937433.925806083 -838170.794647927 -101176.996723625
 1052733.03809688 -684651.028021994 -120646.389281628
 1145998.69129211 -511856.035859606 -127435.587768143
 1213039.40730461 -325205.122513419 -119693.172470534
 1250890.32297891 -131421.074047647 -97730.9167706705
 1258361.82338096 62414.1577609130 -64648.4747483882
 1236062.42269710 251053.517708811 -25908.4804873429
 1185343.33576817 431700.565087000 12051.1149899310
 1107946.87039135 601796.691120136 42940.7250268660
 1008288.05812442 755751.072931226 61195.9028525757
 899039.177077545 882778.644323557 63086.0850342490
 810563.378883329 965362.929169140 51096.5235429091
 368207.043819404 -1205881.25472441 42701.3267360330
 442114.952610470 -1181411.12946745 18749.4737960261
 556752.813674258 -1131949.57269630 -16306.4483381924
 692997.225532873 -1052615.98071586 -57479.3307570184
 836956.640136059 -938637.295169564 -100065.186592933
 976416.967995390 -786809.887764696 -138164.887165116
 1098975.62015467 -597189.874159715 -164821.938544921
 1191790.50139331 -375699.473597636 -173305.329537460
 1243958.23868615 -136040.745699807 -160032.018150235
 1250795.75305192 103526.550519836 -127834.535254312
 1215082.63937985 328367.361644560 -85431.1781684201
 1143413.23867220 531319.326494985 -43074.0042372179
 1043278.47991879 709249.192482409 -9221.02056904193
 924564.508106203 858266.640000406 10405.5721468139
 804411.173384548 971748.811000993 13279.4341447798
 714169.534993174 1039953.17692367 2948.90029443576
 278327.171581535 -1229580.91411321 47055.2029736433
 335669.701726961 -1215833.84125549 24967.0326513958
 431913.707962977 -1185270.69320550 -11548.3167944460
 558153.665686201 -1129745.32409792 -60740.5883976108
 707177.198475319 -1037796.41233065 -120118.472472724
 868975.431101789 -895919.135598824 -183739.036484546
 1026587.21074419 -692776.083033407 -240269.491264083
 1154539.26648147 -428698.322762549 -273507.332866901
 1225865.34648491 -126586.382076108 -269776.705961185
 1228224.83619957 173093.879352350 -230329.528268165
 1170580.28655758 437900.877537095 -171854.720895210
 1071341.47562875 656482.238049815 -113172.190230957
 947686.013159256 830053.851548515 -66717.7256112918
 815236.008954534 962015.722645514 -38280.9352768074
 692500.681158219 1054114.64905313 -28888.4780828657
 606486.868496057 1105686.70730556 -34351.3398370003
 186071.593790257 -1247194.77255332 37841.6730467791
 227472.781756643 -1240774.51462636 16857.2931567026
 302336.250676843 -1224604.03015453 -22072.4211383061
 410216.809959175 -1190268.37124195 -80825.7642518708
 552348.651675923 -1122739.02008500 -160989.101150751
 726270.755401990 -998371.254875852 -259489.996347437
 916640.709714046 -787797.266591046 -361517.229140687
 1085100.18489505 -474713.672140109 -434458.224853582
 1178434.32287803 -91828.9222405661 -440918.843577911
 1170770.33914620 279290.739547399 -377945.666329837
 1085175.74765535 578089.637461064 -282409.983321645
 959731.668019435 796250.066700435 -190919.846006484
 821593.665458189 949646.584066299 -121262.711371395
 687846.577221686 1054698.70516754 -77634.7759788266
 573257.035504464 1122296.38280088 -58108.7886266610
 497169.342237763 1158062.82489865 -57118.9079516563
 93859.6509132828 -1257917.97126834 19549.2815604183
 119335.049929071 -1255909.15810578 -873.706710536947
 169977.487556238 -1249321.29760784 -43050.8999497443
 250987.249224634 -1231192.27226932 -112784.840957988
 370688.510565792 -1186084.03234329 -217587.056769820
 536629.393662041 -1083005.82671527 -361492.329209947
 743148.437559988 -870747.459908097 -530168.550307071
 946443.309439473 -502062.070055655 -666129.244777349
 1061168.90808888 -18538.6785999597 -682001.683883680
 1042483.58347485 427676.395239339 -567336.152611024
 935985.724168758 741984.102299687 -406127.747150779
 800893.887685973 937961.423628955 -265229.672868904
 667691.131619997 1057597.63133928 -165000.708666663
 548801.171189653 1131228.01046155 -103391.942466640
 452447.070077793 1175381.85517970 -72928.5555273130
 390547.146977244 1197804.98600707 -65464.2834183690
 1403.19639307321 -1261560.89635304 -3400.99275896980
 10314.5647745743 -1261308.00222429 -23348.7515179158
 33500.3016675763 -1259249.10052418 -68693.9847160298
 78701.4651073345 -1250252.78813397 -149075.403981140
 157289.574522661 -1220247.97614486 -278934.216939760
 283785.767525926 -1134437.49076222 -473356.787869139
 466472.743136864 -920786.086900226 -725331.367721191
 673583.644904662 -490760.204151889 -947094.993259230
 804068.388020077 104171.858885868 -966525.572409759
 794361.117855355 610303.131395868 -766857.179119386
 702550.267719837 910983.806324706 -517765.445795575
 593201.924914973 1066005.95238977 -321391.065006009
 491183.599985049 1146160.95287824 -191319.554990945
 403087.805602396 1190006.74322995 -113813.896167537
 332781.542290321 1214619.97645689 -74190.2205259840
 287746.824106482 1226781.27841049 -61309.7959310804
 -92403.5128418863 -1257888.69862911 -26963.7459302923
 -101029.806386776 -1256676.83245085 -45888.4290611952
 -108409.635183699 -1253469.46885844 -92795.8649835058
 -106921.421282678 -1244059.69300645 -180090.868248637
 -87257.2630512991 -1215185.45907083 -327505.574038916
 -36010.7227084049 -1129954.39496346 -559871.167387404
 63772.0037910705 -902229.874447387 -879467.916473408
 213084.321412382 -412848.330723896 -1172902.70641075
 350334.419261669 265825.951633662 -1182434.68700711
 402047.535076069 789052.162971813 -898500.915173553
 387256.521719486 1051972.02442138 -578737.139934421
 347032.205894185 1162953.46364346 -344466.718843576
 300471.578205730 1209452.20185593 -196192.846544789
 254952.207877483 1230683.27542128 -109395.969832950
 215435.591732120 1241380.28688608 -64124.2548855429
 188551.259031058 1246494.84974888 -47417.7518054835
 -188551.229844322 -1246494.85220971 -47417.8031739463
 -215435.559025370 -1241380.29002458 -64124.3040107341
 -254952.163579371 -1230683.27985003 -109396.023249176
 -300471.521281114 -1209452.20706246 -196192.901629253
 -347032.128644810 -1162953.46799987 -344466.781960594
 -387256.420977593 -1051972.02200529 -578737.211736630
 -402047.399237850 -789052.140462687 -898500.995723592
 -350334.243985011 -265825.897504753 -1182434.75110731
 -213084.144442087 412848.395117270 -1172902.71589567
 -63771.8563226639 902229.914764906 -879467.885805630
 36010.8354894233 1129954.41413208 -559871.121446480
 87257.3488179744 1215185.46648414 -327505.523681558
 106921.485130649 1244059.69477630 -180090.818115477
 108409.685769043 1253469.46827093 -92795.8138226287
 101029.846825965 1256676.83104403 -45888.3785550447
 92403.5471493526 1257888.69727295 -26963.6916265345
 -287746.803721299 -1226781.28046959 -61309.8504037018
 -332781.516742904 -1214619.98031510 -74190.2719538868
 -403087.772077173 -1190006.74951294 -113813.949208656
 -491183.557435367 -1146160.96110258 -191319.614960129
 -593201.870606996 -1066005.96120589 -321391.136002259
 -702550.202758396 -910983.808564174 -517765.530000794
 -794361.031377022 -610303.114779391 -766857.281923541
 -804068.271858840 -104171.808691740 -966525.674456081
 -673583.514918452 490760.274257069 -947095.049380041
 -466472.618764332 920786.141521467 -725331.378367232
 -283785.664014510 1134437.52278700 -473356.773176096
 -157289.492280044 1220247.99347208 -278934.187514910
 -78701.4049880199 1250252.79655132 -149075.365126031
 -33500.2533591143 1259249.10444005 -68693.9364920118
 -10314.5268692535 1261308.00346835 -23348.7010581347
 -1403.16531123945 1261560.89653278 -3400.93890929894
 -390547.141632183 -1197804.98468241 -65464.3395433879
 -452447.060254323 -1175381.85576511 -72928.6070368844
 -548801.155843784 -1131228.01288030 -103391.997458022
 -667691.105850764 -1057597.63796210 -165000.770494322
 -800893.856804439 -937961.430063691 -265229.743363636
 -935985.691072794 -741984.099130881 -406127.829214980
 -1042483.53966019 -427676.374120691 -567336.249040638
 -1061168.84517436 18538.7293641214 -682001.780396377
 -946443.228973109 502062.136486626 -666129.309035711
 -743148.345398532 870747.520590730 -530168.579826712
 -536629.310911546 1083005.86676888 -361492.332053860
 -370688.437274486 1186084.05775106 -217587.043131545
 -250987.195004986 1231192.28571977 -112784.814787309
 -169977.447619029 1249321.30443138 -43050.8596168371
 -119335.018873348 1255909.16108555 -873.665174784856
 -93859.6268797756 1257917.97235471 19549.3270461347
 -497169.350919680 -1158062.81832425 -57118.9656765312
 -573257.044907498 -1122296.37524095 -58108.8418737444
 -687846.578388716 -1054698.70032782 -77634.8313883284
 -821593.657378190 -949646.583110697 -121262.773599567
 -959731.654694600 -796250.067050609 -190919.911528419
 -1085175.73390295 -578089.626423061 -282410.058760664
 -1170770.31906685 -279290.714388842 -377945.747121497
 -1178434.28996739 91828.9708248464 -440918.921418953
 -1085100.13494096 474713.733632743 -434458.282428263
 -916640.647195556 787797.325896237 -361517.258424274
 -726270.691326472 998371.298513004 -259490.007793327
 -552348.587893858 1122739.05197817 -160989.097561855
 -410216.757345202 1190268.39046703 -80825.7481696037
 -302336.211893940 1224604.04024378 -22072.3926019597
 -227472.755853080 1240774.51893347 16857.3256767175
 -186071.572359433 1247194.77475722 37841.7057877702
 -606486.882238712 -1105686.69831382 -34351.3866269640
 -692500.693010578 -1054114.63990395 -28888.5278091198
 -815236.014159243 -962015.716111063 -38280.9886500364
 -947686.016023895 -830053.843876015 -66717.7803764742
 -1071341.47519911 -656482.228834487 -113172.247753808
 -1170580.28462968 -437900.857705195 -171854.784560392
 -1228224.82868684 -173093.847145939 -230329.592532872
 -1225865.32869467 126586.428442374 -269776.765043761
 -1154539.23438373 428698.379585302 -273507.379294456
 -1026587.16601057 692776.138643311 -240269.522053484
 -868975.376412501 895919.185184338 -183739.053351045
 -707177.144202752 1037796.44865270 -120118.478179031
 -558153.617183084 1129745.34858800 -60740.5785960338
 -431913.670650568 1185270.70698573 -11548.2979549509
 -335669.677584840 1215833.84744807 24967.0556668215
 -278327.157644471 1229580.91605753 47055.2346038104
 -714169.547908912 -1039953.16815638 2948.86419368350
 -804411.182912996 -971748.803596609 13279.3987825747
 -924564.516607138 -858266.631391749 10405.5268690821
 -1043278.48484576 -709249.184652796 -9221.06535283737
 -1143413.24446720 -531319.310175607 -43074.0517070928
 -1215082.64251289 -328367.337846567 -85431.2250783804
 -1250795.75091381 -103526.518384871 -127834.582199122
 -1243958.22844648 136040.786205716 -160032.063311602
 -1191790.48143630 375699.517681853 -173305.371210492
 -1098975.58884611 597189.923183599 -164821.969674136
 -976416.925509642 786809.937023452 -138164.906898979
 -836956.597041564 938637.332762396 -100065.194409711
 -692997.184711003 1052616.00788899 -57479.3253041563
 -556752.783047501 1131949.58799384 -16306.4321175103
 -442114.929129395 1181411.13778951 18749.5031069860
 -368207.029323571 1205881.25799825 42701.3592784385
 -810563.392410015 -965362.918505988 51096.5104221823
 -899039.188919159 -882778.633965648 63086.0612201936
 -1008288.06888256 -755751.061401728 61195.8679830583
 -1107946.88008230 -601796.675963006 42940.6874039687
 -1185343.34335780 -431700.545232140 12051.0797268885
 -1236062.42648491 -251053.495672591 -25908.5133068318
 -1258361.82272915 -62414.1331457887 -64648.5112001542
 -1250890.31702353 131421.103000383 -97730.9540621612
 -1213039.39436525 325205.157480298 -119693.208600837
 -1145998.66958605 511856.077249624 -127435.616719152
 -1052733.00755536 684651.072097230 -120646.405659310
 -937433.891031360 838170.833131822 -101177.000112998
 -805997.213161256 967825.784840864 -72326.8518076691
 -667891.992221388 1069577.47196146 -38389.4401890856
 -539182.658127613 1140531.19857750 -4480.75493236311
 -447944.482053197 1179156.77841665 22010.5390920762
 -878767.807418291 -899895.745148481 97489.5862534176
 -961378.774180255 -809793.452051319 107400.411961185
 -1058165.00355209 -679303.184668930 101899.163270433
 -1142570.40397342 -528847.806572544 80014.3759981654
 -1205223.42458757 -369918.693905902 46325.8852403809
 -1244356.74840052 -207570.818801599 6329.99297521796
 -1260351.21135023 -43169.9074957625 -34649.8781204268
 -1253529.76491116 122762.633600957 -71707.0093651193
 -1223920.10797231 288844.860801550 -100685.880879829
 -1171555.01122448 452693.402008408 -118646.409013535
 -1096479.28447758 611462.560527928 -124081.210113040
 -998822.882479011 761741.226463784 -116844.273546985
 -879948.026419146 898675.165876224 -98101.2128229992
 -745324.376122635 1015421.19963299 -70432.8943908031
 -609176.910068687 1104082.43686760 -38143.0958186488
 -502149.425473148 1157285.62659677 -9239.25800366044
 513528.832192403 -1152169.54773195 18517.6322790516
 627415.082319066 -1094467.46692982 -6380.37849418870
 768770.040195353 -999474.798504513 -39902.1725141952
 904451.789459183 -876562.467164014 -71795.7702261890
 1020770.86227931 -735105.882244153 -95893.7929719324
 1113624.82379073 -582730.939916584 -108691.464338095
 1183041.62190279 -424455.389265758 -108625.845395249
 1230046.41315861 -263418.369414411 -95634.8004109808
 1255439.32639927 -101872.081004228 -71018.3621394410
 1259646.84629994 58626.4502442886 -37445.8656906551
 1242654.39158959 217618.819558953 1242.31873046292
 1203711.30679430 375487.365947652 40469.2331063302
 1141575.80073004 531680.383195552 75300.0148177461
 1056723.97981250 681695.383966888 100872.517993817
 957207.790510085 813849.971440586 113802.024111672
 870322.963337755 905914.494572861 115785.573059600
 457393.273019677 -1175218.59691383 34670.9414811046
 553948.443735481 -1133386.48599762 11208.2987095709
 687858.656463930 -1057281.60250490 -23569.3158843423
 828216.822465079 -949693.060757911 -60740.5651362657
 958637.518298036 -814730.050615220 -93693.5646395060
 1070270.61593510 -657505.880585210 -117287.069111357
 1158271.23119428 -483350.646757996 -127786.298894940
 1219688.80102631 -297923.311499051 -123086.798786041
 1252723.12758731 -107558.101567637 -103273.671930357
 1256910.54815555 81602.6650154619 -71178.0156835371
 1232912.60124395 265428.238395388 -31996.8572700401
 1181548.27610764 442073.386182100 8013.94880880191
 1103649.13582521 609659.999499336 42693.1015703554
 1002501.31903733 762944.142077425 66759.0616854238
 889898.799510942 890875.502806587 77268.3379337738
 797639.565964719 974366.179127884 77013.6526746844
 375855.732926102 -1203377.19852515 46531.8924533823
 453969.155622479 -1176803.60338889 24386.7938296361
 573609.459396775 -1123553.95063182 -12171.2377808808
 713252.080703524 -1039026.06806770 -56971.3100325190
 857999.417627252 -918997.445808400 -104067.885862483
 995201.197315739 -761334.659338726 -146606.767476330
 1112713.54435306 -567563.449677908 -176889.032226175
 1198906.55239632 -344893.449266793 -187672.635706373
 1244747.60507887 -107234.503356069 -175081.671968695
 1246994.14402682 128313.899256091 -141741.239374658
 1208597.19636930 348673.728672460 -96275.0163897935
 1135400.46185371 547724.908204229 -49118.7039121474
 1033925.08208394 722817.834762786 -9095.78504061239
 913205.330274757 870221.815274331 17873.1054205212
 789966.634699564 983169.101506511 29675.9974268824
 697036.479887551 1051084.98536389 30165.0487735498
 285535.394471600 -1227927.30127415 47047.9777301171
 346534.603636416 -1212771.46298267 25467.1941207499
 447553.085617192 -1179430.49385596 -13761.4183919828
 577868.038755138 -1119372.00414725 -68002.0369959992
 728986.972962388 -1020902.48764971 -133736.811988044
 889480.373065047 -871108.363476195 -203824.228032009
 1041442.83889988 -660649.450644747 -265496.793927738
 1160365.60099983 -392781.567236904 -301369.778468530
 1222575.83109896 -91819.7185694501 -297366.621216076
 1218700.30375747 203567.477821161 -254714.119188435
 1157836.67961438 463414.250375669 -190291.583647974
 1057023.00005169 677440.851705398 -123797.014185882
 932299.149421532 847131.486275403 -68818.3977412195
 798612.039419651 976091.519471761 -31836.8815723100
 674119.364037375 1066267.74701933 -13623.7151733961
 586737.833972328 1116780.65211331 -9440.34796975371
 194164.028872098 -1245986.80187655 36968.2344799687
 238940.396249905 -1238638.90300175 15185.0561246480
 318420.006918110 -1220403.33742800 -27817.6941499775
 430739.176663967 -1182067.46829522 -93432.8261583632
 575676.974140913 -1107625.42186292 -182514.046598915
 748372.226724354 -973189.926202639 -290499.240488313
 930840.573776243 -751718.943225823 -400004.859378382
 1085233.51362917 -432565.157391015 -476135.523172064
 1164865.17701285 -51985.7358700349 -481597.377035861
 1149976.58069646 312797.965088184 -413836.595536598
 1062513.19620646 605637.481097579 -309545.441407002
 937337.687232291 818568.620678211 -207106.021771324
 800026.505980640 967198.046415643 -126629.221181866
 667015.781437034 1068289.55372612 -73462.9677629765
 552579.694042386 1133201.56832471 -45379.7112969875
 476421.101600605 1167595.56337694 -35957.8260063035
 103772.769591175 -1257137.84225027 19623.6793862370
 132436.914843475 -1254592.30277051 -2836.95870238225
 187639.312349430 -1246518.81667023 -50316.5883882928
 273407.389540453 -1224853.13022450 -128579.312655198
 396380.921111842 -1172414.96785161 -244693.153674104
 560557.592607039 -1056784.36105131 -400663.737474362
 755056.031583844 -829355.657297522 -577588.966131112
 935454.718592270 -453767.874823804 -714540.842891643
 1029643.31571219 21231.2043088493 -728651.706435767
 1004893.29443075 456655.189700896 -610905.013440139
 901020.683634714 765293.680429419 -440496.017321589
 770198.771749805 957205.201509827 -286533.567172465
 640940.816143281 1072641.45792984 -173737.168880694
 525262.156666056 1142481.62620497 -101905.993334675
 430971.045474874 1183983.08234830 -63225.3872606721
 370109.692373124 1205079.65105770 -48490.0106936396
 13666.1687647257 -1261491.68797632 -1178.09885108712
 25594.8808496837 -1261072.60531797 -24294.3843263042
 53371.9895215446 -1258149.63898862 -75896.9536033981
 103821.425907728 -1246283.88008797 -165972.987785067
 186583.329911168 -1208924.01755688 -308607.860710539
 311851.979295185 -1108355.56548604 -515602.283145392
 479805.418135806 -875326.661871940 -771452.802615043
 654831.124986098 -441089.271209092 -983964.371048377
 756618.775847691 131007.327369130 -1000956.81182022
 742407.335227020 621626.725850559 -808678.547525766
 657976.955344197 921853.328616165 -555699.736975132
 556719.759430384 1077754.76043337 -346492.736925220
 461408.803386595 1156462.20640930 -203092.373621528
 378532.842305515 1197924.65076142 -115060.198649159
 311749.147489866 1220570.23470934 -67603.2698905050
 268595.891076616 1231686.08950681 -48528.9102612490
 -77615.4468514075 -1258988.58909136 -21748.6980472324
 -83443.0729750613 -1258003.57914136 -44874.0388080656
 -86223.8446657400 -1254739.43085216 -98710.8919765186
 -78876.0719909130 -1243701.69155922 -196301.040748603
 -53329.7626370229 -1208840.75627843 -356944.524115773
 435.246153787296 -1109431.06269262 -600593.005797153
 91410.8494991027 -862470.280104922 -916154.191961453
 211744.647813778 -377122.838908008 -1185112.65262638
 314457.772870646 262454.082962098 -1193224.03358997
 353697.315526378 771945.257385889 -933031.703377661
 342396.148020650 1045396.10561890 -617625.526590681
 309651.579102502 1164979.55592168 -372139.711348850
 270431.887229277 1214123.75024167 -210522.075772762
 230988.111863348 1235062.66712782 -113199.520157491
 195807.461389715 1244808.19532743 -60509.7168126032
 171373.184445178 1249275.56275692 -38616.4585437224
 -171373.156438764 -1249275.56485682 -38616.5148975161
 -195807.428671731 -1244808.19778604 -60509.7721082983
 -230988.071487481 -1235062.66921612 -113199.579761625
 -270431.833400342 -1214123.75093569 -210522.140917623
 -309651.504963726 -1164979.55364644 -372139.780161166
 -342396.053028125 -1045396.09287271 -617625.600826408
 -353697.186762084 -771945.223367270 -933031.780335480
 -314457.617521340 -262454.021632641 -1193224.08801977
 -211744.485671355 377122.909944586 -1185112.65899140
 -91410.7092006582 862470.328262088 -916154.160624658
 -435.139593124061 1109431.08696411 -600592.961039440
 53329.8469010585 1208840.76718763 -356944.474580706
 78876.1315815574 1243701.69647237 -196300.985676155
 86223.8901858672 1254739.43211369 -98710.8361791804
 83443.1034478801 1258003.57897266 -44873.9868733979
 77615.4782790610 1258988.58809647 -21748.6434820830
 -268595.871690291 -1231686.09137347 -48528.9701830152
 -311749.121903017 -1220570.23797224 -67603.3289715330
 -378532.811366103 -1197924.65458152 -115060.260663570
 -461408.761449053 -1156462.21125454 -203092.441310023
 -556719.706941269 -1077754.76234038 -346492.815329295
 -657976.889817509 -921853.322138696 -555699.825307585
 -742407.247770296 -621626.697944096 -808678.649266944
 -756618.664086170 -131007.268866733 -1000956.90395715
 -654831.002508169 441089.343044528 -983964.420355556
 -479805.301031721 875326.719655587 -771452.809883925
 -311851.883448286 1108355.60040995 -515602.266042945
 -186583.252009327 1208924.03812467 -308607.827238597
 -103821.372899941 1246283.89042353 -165972.943333898
 -53371.9488918857 1258149.64371888 -75896.9037608708
 -25594.8516800749 1261072.60686340 -24294.3348372222
 -13666.1410199497 1261491.68832917 -1178.04286323055
 -370109.681586744 -1205079.65190145 -48490.0720540325
 -430971.031208247 -1183983.08413792 -63225.4509948582
 -525262.138289517 -1142481.62905111 -101906.056145848
 -640940.792707416 -1072641.46085093 -173737.237304273
 -770198.741339687 -957205.203237555 -286533.643142766
 -901020.646366147 -765293.673079846 -440496.106322000
 -1004893.24932771 -456655.159891284 -610905.109914144
 -1029643.25107651 -21231.1492729661 -728651.799374769
 -935454.637958002 453767.940859735 -714540.906519517
 -755055.946807242 829355.716461562 -577588.992002533
 -560557.512933541 1056784.40336393 -400663.737340246
 -396380.854155408 1172414.99414498 -244693.136156322
 -273407.340239696 1224853.14463957 -128579.280168130
 -187639.275782615 1246518.82373125 -50316.5498260096
 -132436.888387277 1254592.30566717 -2836.91275542162
 -103772.746813306 1257137.84337414 19623.7278411323
 -476421.104933127 -1167595.56011163 -35957.8878810006
 -552579.692448402 -1133201.56665779 -45379.7723319864
 -667015.774210854 -1068289.55366943 -73463.0341982721
 -800026.495538044 -967198.046754804 -126629.284566258
 -937337.675144942 -818568.616148822 -207106.094379260
 -1062513.18058928 -605637.467485892 -309545.521644688
 -1149976.55830640 -312797.930035115 -413836.684249324
 -1164865.14198730 51985.7874310171 -481597.456188291
 -1085233.46370039 432565.218615765 -476135.581350215
 -930840.514220838 751718.999234558 -400004.892712369
 -748372.164133782 973189.971828147 -290499.248883370
 -575676.918018655 1107625.45186836 -182514.041522604
 -430739.133752834 1182067.48554242 -93432.8057816137
 -318419.971518880 1220403.34739240 -27817.6622002785
 -238940.373888879 1238638.90689053 15185.0907741508
 -194164.012840304 1245986.80310709 36968.2772073895
 -586737.842259001 -1116780.64730779 -9440.40142201696
 -674119.368434455 -1066267.74351878 -13623.7715724185
 -798612.042585577 -976091.514914830 -31836.9418681952
 -932299.148606308 -847131.482057413 -68818.4607072667
 -1057022.99847284 -677440.842453563 -123797.078294509
 -1157836.67489237 -463414.234244720 -190291.651662665
 -1218700.29448395 -203567.448414730 -254714.187059932
 -1222575.81263643 91819.7636330206 -297366.683207289
 -1160365.56984471 392781.619163660 -301369.830747998
 -1041442.79785699 660649.503926370 -265496.822339921
 -889480.323376410 871108.411010066 -203824.241719840
 -728986.926006065 1020902.52102270 -133736.813184261
 -577868.001711689 1119372.02408870 -68002.0235306720
 -447553.055901173 1179430.50542013 -13761.3937116728
 -346534.583645592 1212771.46803034 25467.2257630722
 -285535.384670422 1227927.30212758 47048.0149396247
 -697036.489088453 -1051084.98031947 30165.0119345148
 -789966.641806292 -983169.097101199 29675.9541962188
 -913205.334158569 -870221.812198181 17873.0567560364
 -1033925.08564589 -722817.829010108 -9095.83730094040
 -1135400.46575713 -547724.895675451 -49118.7533917463
 -1208597.19851923 -348673.707775661 -96275.0650812526
 -1246994.14104954 -128313.871075630 -141741.291078718
 -1244747.59536147 107234.538986656 -175081.719231653
 -1198906.53269576 344893.493499887 -187672.680270300
 -1112713.51626973 567563.495590744 -176889.061568062
 -995201.159816762 761334.705392813 -146606.782867516
 -857999.379238466 918997.481065961 -104067.891012457
 -713252.045629310 1039026.09281955 -56971.2977269649
 -573609.430126521 1123553.96585005 -12171.2124094148
 -453969.136532610 1176803.60999198 24386.8305575628
 -375855.724067192 1203377.19952212 46531.9382272498
 -797639.577216268 -974366.171803876 77013.6288033896
 -889898.808521719 -890875.496153942 77268.3108592745
 -1002501.32623800 -762944.136154761 66759.0212411593
 -1103649.14210358 -609659.990909780 42693.0619289461
 -1181548.28400826 -442073.365736586 8013.91180536554
 -1232912.60512387 -265428.216146320 -31996.8923336339
 -1256910.54737510 -81602.6420412134 -71178.0558041850
 -1252723.12190978 107558.129924588 -103273.711266247
 -1219688.78901648 297923.344969004 -123086.836781793
 -1158271.21109758 483350.687758003 -127786.325971800
 -1070270.58879750 657505.921755671 -117287.085948261
 -958637.488934499 814730.084901089 -93693.5669369863
 -828216.791014228 949693.089210797 -60740.5491109600
 -687858.631914873 1057281.61914777 -23569.2857637419
 -553948.423170613 1133386.49556313 11208.3478204123
 -457393.261848424 1175218.59963947 34670.9964674585
 -870322.972354279 -905914.486953838 115785.564897063
 -957207.800598245 -813849.962386894 113802.004005530
 -1056723.99085146 -681695.371364411 100872.487518968
 -1141575.81033615 -531680.367384612 75299.9808238950
 -1203711.31377622 -375487.346680181 40469.2042070167
 -1242654.39545265 -217618.797663689 1242.29005084620
 -1259646.84631309 -58626.4291973655 -37445.8981999624
 -1255439.32275303 101872.100841514 -71018.3981409353
 -1230046.40402477 263418.399799263 -95634.8341969972
 -1183041.60667665 424455.425444021 -108625.869856257
 -1113624.80235992 582730.978323663 -108691.477999593
 -1020770.83735116 735105.917244764 -95893.7900184182
 -904451.764531228 876562.494343029 -71795.7524260949
 -768770.020248871 999474.815505563 -39902.1309659612
 -627415.064284276 1094467.47758618 -6380.32399346063
 -513528.819245186 1152169.55246319 18517.6969509729
 535428.252729921 -1141050.37402808 53572.9505245602
 653216.387676482 -1078864.65293290 30147.0138127129
 797967.858315104 -977122.437984190 -5335.65392357251
 933620.853714632 -847412.751901088 -42345.7240290102
 1046386.81357242 -700908.684955621 -73151.0946909437
 1133414.10430962 -546136.832118566 -93040.0971327989
 1196194.13159247 -388224.021259072 -99755.3997541725
 1236963.11205102 -229901.545663305 -92827.6340624091
 1257340.40908792 -72682.7335589636 -73223.9498795838
 1258103.39070680 82797.0932397124 -43242.6937419533
 1239088.77657240 236999.381232931 -6303.01407948610
 1198952.84413464 391077.731786515 33462.1601383456
 1135517.23376601 545000.474365839 71585.7924476326
 1048198.21141336 694324.018887686 103653.737532425
 944609.357252817 826640.624855572 126205.667256919
 853749.073461448 918469.788960709 138112.987257330
 477068.307174614 -1166521.10376018 56424.9562750690
 577690.992899721 -1121015.01051477 33880.5820797105
 716088.638893895 -1038633.12712717 -2778.38083728988
 858134.833862506 -923670.698404892 -44569.9308832885
 986458.227178247 -781966.416901609 -83535.1410447314
 1092784.83690074 -620101.636138251 -113334.425561901
 1173629.91245001 -444276.709397079 -129462.214598807
 1227630.94073734 -260263.569527845 -129362.199424469
 1254349.68817000 -73720.2327878255 -112790.150210393
 1254031.17349984 110436.088977852 -82213.8495683470
 1227210.70599199 289313.264322907 -42439.9470360874
 1173957.61813296 461922.729524633 577.663434930390