# ODT 1.0
# Table Start
# Title: mmArchive Data Table, Mon Feb 01 16:33:27 GMT 2021
# Columns: {Oxs_CGEvolve:evolver:Max mxHxm} {Oxs_CGEvolve:evolver:Total energy} {Oxs_CGEvolve:evolver:Delta E} {Oxs_CGEvolve:evolver:Bracket count} {Oxs_CGEvolve:evolver:Line min count} {Oxs_CGEvolve:evolver:Conjugate cycle count} {Oxs_CGEvolve:evolver:Cycle count} {Oxs_CGEvolve:evolver:Cycle sub count} {Oxs_CGEvolve:evolver:Energy calc count} Oxs_UniformExchange:exchange:Energy {Oxs_UniformExchange:exchange:Max Spin Ang} {Oxs_UniformExchange:exchange:Stage Max Spin Ang} {Oxs_UniformExchange:exchange:Run Max Spin Ang} Oxs_UniaxialAnisotropy:uniaxialanisotropy:Energy Oxs_Demag:demag:Energy Oxs_MinDriver::Iteration {Oxs_MinDriver::Stage iteration} Oxs_MinDriver::Stage Oxs_MinDriver::mx    Oxs_MinDriver::my    Oxs_MinDriver::mz   
# Units:                 A/m                                 J                                J                                 {}                                   {}                                        {}                                      {}                                   {}                                      {}                                     J                                      deg                                            deg                                              deg                                              J                                   J                       {}                           {}                         {}                 {}                   {}                   {}           
                  0.096503364370799996               2.24643599572e-16                 0                                 360                                  203                                       110                                     321                                  168                                     564                                   1.2802090191700001e-16                     31.758942257000001                             179.61382633900001                               179.61382633900001                               4.7340894992499999e-17                 4.9281802662500002e-17     543                          543                        0                    1.8023125892800002e-18 -2.0389681116600001e-08 -0.16886660494299999
# Table End
