# OOMMF OVF 2.0
#
# Segment count: 1
#
# Begin: Segment
# Begin: Header
#
# Title: Oxs_MinDriver::Magnetization
# Desc: Oxs vector field output
# Desc:  MIF source file: C:/Users/grl31/Documents/GitHub/phd-work/Skyrmions/stdprob3/drive-143/stdprob3.mif
# Desc:  Iteration: 587, State id: 1230
# Desc:  Stage: 0, Stage iteration: 587
# Desc:  Stage simulation time: -1 s
# Desc:  Total simulation time: -2 s
# meshunit: m
# meshtype: rectangular
# xbase: 3.1249999999999999e-09
# ybase: 3.1249999999999999e-09
# zbase: 3.1249999999999999e-09
# xnodes: 16
# ynodes: 16
# znodes: 16
# xstepsize: 6.2499999999999997e-09
# ystepsize: 6.2499999999999997e-09
# zstepsize: 6.2499999999999997e-09
# xmin: 0
# ymin: 0
# zmin: 0
# xmax: 9.9999999999999995e-08
# ymax: 9.9999999999999995e-08
# zmax: 9.9999999999999995e-08
# valuedim: 3
# valuelabels: Magnetization_x Magnetization_y Magnetization_z
# valueunits: A/m A/m A/m
#
# End: Header
#
# Begin: Data Text
 502028.107922653 -1157329.26312283 -10304.6831154931
 608898.059487138 -1104202.48017795 -39108.3985943372
 744926.509813401 -1015653.67332866 -71284.9335426588
 879515.164763151 -899016.209066166 -98855.2563443167
 998430.810627033 -762149.256987086 -117532.367387166
 1096173.18592878 -611876.962262132 -124741.173726093
 1171347.65745087 -453054.870072798 -119312.115925529
 1223800.17960640 -289109.217130618 -101382.502851469
 1253472.72476134 -122907.606801574 -72451.9108695578
 1260329.72932027 43141.3947930317 -35457.3598249015
 1244351.39318615 207628.069029383 5442.99051829772
 1205235.27160409 370002.659580246 45336.5515221312
 1142634.46468982 528877.301851293 78896.8352246354
 1058356.39588359 679193.436076225 100635.215517321
 961791.557041192 809488.278562675 105996.031024142
 879433.579912009 899406.578644977 95988.6229312532
 447942.487892432 -1179176.00266703 20997.9330862043
 539079.080471300 -1140576.05310074 -5426.14138265825
 667686.508998916 -1069674.38176105 -39253.9631616882
 805730.645364775 -967988.439057032 -73115.9345898532
 937158.847859782 -838389.293968765 -101912.298353225
 1052493.98832950 -684892.613022035 -121358.741247039
 1145820.04867076 -512076.404013883 -128154.607546090
 1212922.91877372 -325363.864171465 -120439.943223986
 1250820.91268982 -131494.720417637 -98517.0736423397
 1258318.34249426 62423.4135606154 -65480.5108477365
 1236031.60338120 251112.310282634 -26793.9169658233
 1185336.06895295 431746.024567283 11099.7670459086
 1108011.37593196 601750.699197907 41908.4447234602
 1008508.32938462 755547.119356771 60074.3781697024
 899501.943374889 882392.150007546 61885.2033107450
 811274.368034553 964830.770872085 49848.9144061211
 368307.895500818 -1205882.31411470 41791.9793272065
 442170.484932555 -1181403.92015343 17873.7410622208
 556748.654431400 -1131939.19134816 -17147.4137362809
 692933.521172130 -1052613.35576242 -58289.7025685798
 836846.365280673 -938650.878174982 -100856.932021621
 976282.194368084 -786837.700461076 -138956.615574493
 1098838.59668006 -597217.957925520 -165631.760530470
 1191665.12487762 -375709.622908390 -174143.447546553
 1243848.55275199 -136021.278089828 -160898.790059320
 1250700.88491861 103571.533546217 -128723.210112391
 1215007.97632792 328407.488154693 -86334.0610791518
 1143387.47878148 531299.771242376 -43989.2869058066
 1043362.49140775 709112.870474605 -10152.8010737259
 924837.799918268 857983.161093296 9453.57295671138
 804932.409751334 971329.864757146 12310.1779731070
 714913.571422291 1039444.14303583 1972.26359288118
 278469.918847876 -1229578.66001628 46262.8798107123
 335810.281717570 -1215810.92565250 24180.1297707502
 432043.606044413 -1185215.30927449 -12346.0137887341
 558254.484937808 -1129651.04956420 -61561.8971790757
 707226.642329442 -1037663.48209855 -120972.745763239
 868954.778866756 -895755.688315275 -184631.443839909
 1026487.88300952 -692600.727000297 -241197.615892531
 1154370.85300935 -428542.384430879 -274460.906847795
 1225663.19289559 -126480.364981461 -270743.210023974
 1228037.37252185 173141.404681154 -231291.367313212
 1170449.42873747 437883.519767988 -172787.698643953
 1071311.25396068 656377.929497004 -114059.816435819
 947811.101789242 829843.043156731 -67557.9008583929
 815567.113757299 961702.836385033 -39081.5604284907
 693056.751213227 1053727.65970854 -29661.2488254702
 607223.031261277 1105258.80833556 -35108.2301103763
 186191.738204443 -1247197.52117312 37153.8789761927
 227618.082025640 -1240757.24029714 16152.7181659246
 302509.703600467 -1224547.36214987 -22826.9139025564
 410399.849621328 -1190148.53861305 -81656.9065478418
 552501.387751850 -1122531.32252161 -161910.708136077
 726333.352397023 -998064.270615588 -260493.769282934
 916546.494412467 -787424.900496009 -362565.829302792
 1084823.74390252 -474386.580260623 -435504.590162845
 1178059.33470737 -91672.3570283502 -441952.275460440
 1170444.28583622 279275.050063035 -378965.765056142
 1084988.01297154 577968.293302884 -283378.006492359
 959714.953904101 796059.177486423 -191797.873062874
 821764.813649558 949398.688019889 -122041.604187155
 688212.291018156 1054408.74474283 -78329.2564776554
 573803.693191982 1121983.84108074 -58745.3228088047
 497848.857637761 1157740.74687347 -57726.1543546973
 93906.2796026337 -1257923.76069288 18943.4382948970
 119420.532152613 -1255900.42533846 -1512.96200202335
 170113.541384140 -1249277.76916853 -43770.6456200887
 251162.629927964 -1231079.13734207 -113626.237497031
 370862.438685774 -1185848.69185344 -218571.184103650
 536716.571443661 -1082594.59755058 -362593.009048735
 743014.951935509 -870181.040220375 -531284.452398349
 945993.411971196 -501564.359110106 -667142.480356720
 1060552.21497099 -18410.0638317231 -682963.761695146
 1042003.41854859 427498.645370630 -568351.312885151
 935759.645892574 741720.310817162 -407129.336402145
 800898.341066407 937704.033185782 -266124.828498110
 667886.400097362 1057355.63159229 -165759.632673389
 549157.612348383 1130996.26629104 -104032.655231409
 452936.648022316 1175158.34430029 -73489.3843943160
 391129.838359130 1197586.18052919 -65986.5188475952
 1342.08292477640 -1261559.37135816 -3947.43850782692
 10297.3406622426 -1261297.06452334 -23939.7309724496
 33542.7766647845 -1259210.03135055 -69385.9495770808
 78800.5955284883 -1250145.51382086 -149920.283273747
 157415.856996826 -1219997.43560076 -279957.025295793
 283857.889182882 -1133941.11465875 -474501.504901792
 466323.259450646 -920030.533851118 -726385.479890605
 673037.927926548 -490123.388632456 -947812.451071799
 803309.030048033 104133.646314162 -967160.905365575
 793821.279131327 609855.690285098 -767771.609753932
 702329.963986717 910567.135716080 -518796.245128262
 593216.078883776 1065715.33902218 -322327.365958204
 491359.804754449 1145955.95215573 -192093.542081639
 403385.931322451 1189845.34627642 -114443.319046700
 333175.291089236 1214479.38656900 -74722.6600540402
 288206.879160916 1226648.85855340 -61796.4686120127
 -92592.2881572610 -1257863.85800758 -27470.2350017670
 -101172.316112961 -1256644.92280671 -46444.9281990817
 -108488.058584454 -1253413.15499741 -93462.4787974701
 -106929.997774966 -1243938.09414523 -180923.808353503
 -87202.4718643276 -1214913.56724350 -328527.295589524
 -35925.2632217864 -1129402.18701294 -560989.756013238
 63789.8441644194 -901371.109959961 -880346.754881269
 212857.685242430 -412226.341174114 -1173162.59759438
 349886.190347811 265471.363430437 -1182647.04790619
 401693.051099696 788313.889671113 -899307.141620019
 387099.142779569 1051442.69125255 -579803.373213599
 347028.874261270 1162662.04606205 -345452.396133992
 300581.227825217 1209294.05168091 -196998.103968541
 255151.852330427 1230584.55856477 -110039.117559449
 215708.739840943 1241305.09469107 -64659.3563932631
 188876.360139471 1246427.08370188 -47902.7819009660
 -188876.302254254 -1246427.08827361 -47902.8911807700
 -215708.652235481 -1241305.10402247 -64659.4695111103
 -255151.722619801 -1230584.57304579 -110039.256380679
 -300581.040143565 -1209294.06818802 -196998.289003846
 -347028.607835236 -1162662.04706480 -345452.660400781
 -387098.759617381 -1051442.62440575 -579803.750250363
 -401692.488770844 -788313.639480507 -899307.612106689
 -349885.421253157 -265470.834575399 -1182647.39415571
 -212856.844180664 412226.899425719 -1173162.55403685
 -63789.1540804596 901371.420196660 -880346.487238581
 35925.7586341971 1129402.30266111 -560989.491460667
 87202.8160020481 1214913.59724202 -328527.093306945
 106930.242038673 1243938.09520305 -180923.656714929
 108488.231364939 1253413.14852549 -93462.3650336207
 101172.433667569 1256644.91684588 -46444.8334064795
 92592.3747673297 1257863.85348239 -27470.1502786249
 -288206.849552450 -1226648.85894078 -61796.5990106918
 -333175.241752512 -1214479.39156511 -74722.7988350987
 -403385.853508696 -1189845.35700404 -114443.481788752
 -491359.692741738 -1145955.96429231 -192093.756198859
 -593215.923847014 -1065715.33633528 -322327.660173728
 -702329.745297744 -910567.067419938 -518796.661052491
 -793820.953118404 -609855.451501070 -767772.136498564
 -803308.527752326 -104133.156830544 -967161.375266739
 -673037.275059542 490123.941337795 -947812.628860201
 -466322.629918093 920030.901966824 -726385.417785447
 -283857.384254906 1133941.30042126 -474501.363034765
 -157415.481108632 1219997.51638682 -279956.884602403
 -78800.3206541433 1250145.54550558 -149920.163541498
 -33542.5788974206 1259210.04167193 -69385.8578706568
 -10297.1987252667 1261297.06709092 -23939.6567478561
 -1341.97531640349 1261559.37167845 -3947.37273113213
 -391129.836406440 -1197586.17219893 -65986.6816073456
 -452936.639097925 -1175158.33728344 -73489.5516033382
 -549157.586940280 -1130996.26150770 -104032.841355434
 -667886.359259717 -1057355.62186728 -165759.859252493
 -800898.288617056 -937703.994978952 -266125.120967072
 -935759.566181425 -741720.202657072 -407129.716661970
 -1042003.28000688 -427498.385052362 -568351.762688813
 -1060551.94227472 18410.5014492160 -682964.173359531
 -945992.987315108 501564.855852797 -667142.709053283
 -743014.463855669 870181.427483872 -531284.500698409
 -536716.126600057 1082594.83631833 -362592.954624419
 -370862.074866636 1185848.82159308 -218571.097519468
 -251162.352487819 1231079.20198806 -113626.150353591
 -170113.331547190 1249277.80035694 -43770.5709832103
 -119420.379830877 1255900.43989936 -1512.89808008717
 -93906.1587600693 1257923.76898336 18943.4868113887
 -497848.894180269 -1157740.72104600 -57726.3571890772
 -573803.726649933 -1121983.81358930 -58745.5210652031
 -688212.315144323 -1054408.71341402 -78329.4662258775
 -821764.831039651 -949398.643134393 -122041.836268959
 -959714.968081994 -796059.095183092 -191798.143720443
 -1084988.00870539 -577968.142282572 -283378.330842197
 -1170444.23809251 -279274.783653211 -378966.108841487
 -1178059.18739367 91672.7400845165 -441952.588680868
 -1084823.47490445 474387.005858316 -435504.796630270
 -916546.143250454 787425.268257878 -362565.918310976
 -726332.995344299 998064.531635191 -260493.764771747
 -552501.062091450 1122531.49011270 -161910.657500148
 -410399.582782649 1190148.63527342 -81656.8388292991
 -302509.496653761 1224547.41441092 -22826.8528882463
 -227617.917794113 1240757.26977691 16152.7679908785
 -186191.605237452 1247197.53983633 37153.9188276469
 -607223.112561836 -1105258.75551132 -35108.4869401985
 -693056.828553874 -1053727.60193456 -29661.4941472629
 -815567.184362790 -961702.766852927 -39081.7980257776
 -947811.159554167 -829842.957288248 -67558.1451982979
 -1071311.30203463 -656377.806853583 -114060.070672829
 -1170449.45632339 -437883.339818470 -172787.967812173
 -1228037.35762701 -173141.151589096 -231291.635857924
 -1225663.10679860 126480.688338851 -270743.448727936
 -1154370.68203689 428542.736645583 -274461.076003401
 -1026487.64357283 692601.049590582 -241197.708565574
 -868954.506126024 895755.948889865 -184631.463273866
 -707226.369650963 1037663.67129995 -120972.716980218
 -558254.241564181 1129651.17278909 -61561.8429775576
 -432043.400735041 1185215.38472084 -12345.9556653761
 -335810.110512336 1215810.97185581 24180.1842771333
 -278469.769390684 1229578.69239460 46262.9188837127
 -714913.697421242 -1039444.05698783 1971.94095071251
 -804932.523508793 -971329.774344159 12309.8736486252
 -924837.900506528 -857983.055702126 9453.29750259701
 -1043362.57427433 -709112.744832282 -10153.0605739289
 -1143387.53998519 -531299.619203383 -43989.5323901435
 -1215008.01073376 -328407.299504996 -86334.2944812934
 -1250700.88177231 -103571.300214887 -128723.428422012
 -1243848.49942379 136021.547790718 -160898.974318503
 -1191665.01457952 375709.906685416 -174143.590076097
 -1098838.43356741 597218.233160508 -165631.850242366
 -976281.991381719 786837.946405072 -138956.649066349
 -836846.144621893 938651.076259748 -100856.919380098
 -692933.300585132 1052613.50346030 -58289.6576776096
 -556748.451481789 1131939.29208217 -17147.3535014930
 -442170.305669443 1181403.98632311 17873.8021420586
 -368307.732637753 1205882.36204955 41792.0314891341
 -811274.532627711 -964830.652725571 49848.5224434259
 -899502.087751752 -882392.028051480 61884.8437049678
 -1008508.44654634 -755546.988269282 60074.0599664236
 -1108011.46800086 -601750.549135814 41908.1652221094
 -1185336.13372930 -431745.852967170 11099.5243267001
 -1236031.63640715 -251112.124670986 -26794.1329929271
 -1258318.34318480 -62423.2051122029 -65480.6962938423
 -1250820.87631987 131494.947218660 -98517.2326921255
 -1212922.84290284 325364.101758216 -120440.065470429
 -1145819.93454518 512076.638385287 -128154.691439082
 -1052493.83806488 684892.835469264 -121358.789040116
 -937158.668376022 838389.493928428 -101912.303855172
 -805730.448271972 967988.605833081 -73115.8985702007
 -667686.312029023 1069674.50701308 -39253.9003712450
 -539078.894725589 1140576.14124597 -5426.06679385233
 -447942.308248941 1179176.06967786 20998.0022534625
 -879433.774852268 -899406.435600382 95988.1772337623
 -961791.723562849 -809488.133146950 105995.630566653
 -1058356.52446059 -679193.287851909 100634.863678401
 -1142634.56118934 -528877.137815988 78896.5372508001
 -1205235.33521115 -370002.483086583 45336.3009869729
 -1244351.42470695 -207627.885645420 5442.77972601826
 -1260329.73095064 -43141.2037616791 -35457.5343028185
 -1253472.69666364 122907.808073395 -72452.0555424637
 -1223800.12211467 289109.420937825 -101382.615650116
 -1171347.56929123 453055.075275241 -119312.202233543
 -1096173.06501681 611877.168129436 -124741.226435028
 -998430.658352017 762149.454532847 -117532.379951206
 -879514.988893390 899016.384519482 -98855.2254376743
 -744926.319021023 1015653.81809065 -71284.8647794380
 -608897.862353804 1104202.59178002 -39108.3168418001
 -502027.908447309 1157329.35040753 -10304.5982093859
 513444.912270843 -1152226.38237382 17266.0575659256
 627148.581807832 -1094612.84263794 -7537.37271689012
 768368.480939949 -999742.048876500 -40928.5245911184
 904012.488593788 -876941.255897635 -72697.2151467896
 1020376.65670890 -735547.183448595 -96701.8628742981
 1113321.58551997 -583168.722832984 -109447.333652308
 1182839.49671789 -424828.030636821 -109367.729739424
 1229930.89001632 -263681.575315466 -96392.2379746437
 1255383.38021510 -102004.214952442 -71813.2281031851
 1259621.44491167 58622.0513414197 -38297.5395307602
 1242638.73750275 217711.511729844 310.864661697234
 1203705.12292182 375617.948963974 39427.9645280672
 1141613.45678923 531766.068701730 74114.7379014146
 1056883.18662990 681647.901619055 99516.3250744206
 957591.646352434 813610.743681695 112273.004416509
 870973.461388740 905499.924195195 114125.140779615
 457428.102924282 -1175237.96740456 33536.2720773047
 553860.042290180 -1133439.81195125 10132.9737583081
 687650.247693434 -1057394.72085299 -24555.4897800080
 827938.670708791 -949877.937614845 -61635.1530904399
 958349.720050928 -814973.529466087 -94516.6189981994
 1070021.35133906 -657771.230530336 -118070.940049194
 1158085.27035078 -483590.112002711 -128563.373822907
 1219566.58116473 -298094.203415945 -123881.519666768
 1252647.91839738 -107635.653729250 -104101.822750387
 1256859.86383878 81616.8790147340 -72051.3611946351
 1232872.36554526 265501.064866543 -32929.4055295309
 1181529.13720814 442141.715595270 7002.29802420270
 1103699.99365859 609644.870073610 41579.8906914172
 1002708.72515419 762778.111037459 65530.1208662591
 890354.261232093 890535.359419664 75930.8504370862
 798350.100044481 973894.586548964 75603.4587075466
 375993.585741941 -1203371.89332392 45544.9311984593
 454043.552253255 -1176794.41132564 23426.4177571192
 573606.202087358 -1123545.25342863 -13092.7210257790
 713175.369821394 -1039030.07673319 -57851.7280890614
 857867.041422347 -919024.541928333 -104916.450062139
 995040.455253543 -761383.486140513 -147441.888078982
 1112551.44649976 -567618.290015514 -177730.657597708
 1198760.18855696 -344932.059168953 -188534.654128331
 1244621.85807638 -107240.327548145 -175969.808390049
 1246887.19315174 128340.121433012 -142655.429983209
 1208513.53991539 348702.954287606 -97214.7336118776
 1135368.79140060 547702.712439512 -50088.6935236164
 1034006.72591743 722687.632958062 -10104.7932158931
 913479.912431385 869954.578880586 16819.9639716041
 790492.103000306 982779.039474407 28583.6593680663
 697784.254268278 1050620.19483534 29047.7472166084
 285712.817169262 -1227918.10349448 46203.3346704125
 346694.280479314 -1212743.25904694 24623.0468886887
 447685.589155825 -1179369.96677489 -14612.5169137254
 577955.136224369 -1119274.17433229 -68866.6399905603
 729006.873395597 -1020772.28493010 -134619.284575116
 889418.014874093 -870960.425984108 -204726.554471965
 1041298.21446473 -660506.805518073 -266417.378066495
 1160159.18360036 -392672.610495496 -302305.012517726
 1222348.90105782 -91764.5845789160 -298315.028147701
 1218499.86573765 203569.248173222 -255669.844358847
 1157701.89533257 463360.783747564 -191239.474343473
 1056996.12600566 677312.602637494 -124724.732256258
 932432.539672356 846910.640779108 -69723.4280155277
 798952.654571707 975783.418536462 -32723.1841524056
 674682.129041328 1065900.21902864 -14497.5427545075
 587474.825685712 1116385.45031211 -10309.5313147778
 194314.998057278 -1245984.62207667 36241.3299620095
 239102.798964830 -1238616.49079285 14438.5311631725
 318595.527975745 -1220339.22877679 -28609.2149712407
 430907.254847183 -1181938.25442813 -94288.5536977404
 575794.631346994 -1107411.50563958 -183438.628996244
 748380.540722513 -972891.754466663 -291474.923925904
 930685.373287653 -751385.291648347 -400991.658718614
 1084912.62189713 -432308.083583105 -477099.313179072
 1164473.86614866 -51909.1578109503 -482551.018350496
 1149652.73880352 312709.642261609 -414801.989769991
 1062337.58749651 605458.342004251 -310497.145250196
 937338.524906440 818339.595897371 -208005.351930424
 800215.531299492 966932.721029157 -127458.414352196
 667394.240769861 1068000.35805249 -74226.6360946239
 553130.527053628 1132903.87719623 -46096.1602965872
 477095.975896208 1167298.37955619 -36651.7910626720
 103846.261491059 -1257141.58872623 18984.4880938067
 132536.927814065 -1254580.03653470 -3510.78526192665
 187775.763728838 -1246467.83446021 -51064.9697061017
 273565.849243298 -1224727.72511230 -129433.984671689
 396515.653635324 -1172167.09437698 -245660.477490646
 560583.337450108 -1056377.68772680 -401698.809514328
 754860.026994829 -828841.033352798 -578583.020831917
 934987.303027808 -453373.269350166 -715402.580883296
 1029063.87298733 21257.2465033650 -729469.057398843
 1004461.32513528 456393.044701409 -611810.645522460
 900836.214313369 764962.805622442 -441446.997854504
 770237.476426208 956904.876805062 -287431.239732619
 641160.689733981 1072380.83679477 -174532.924498950
 525630.986152180 1142249.71605908 -102601.576394284
 431460.547503505 1183771.32044177 -63848.9449127325
 370682.322213181 1204879.79024790 -49078.8953602069
 13628.5314159407 -1261491.42160566 -1757.06167601366
 25589.8009437984 -1261060.53964338 -24918.0328470470
 53412.7367861009 -1258104.37786797 -76615.1738066220
 103900.966455991 -1246163.27454646 -166826.596381145
 186666.563772252 -1208656.93387332 -309602.068934226
 311858.529051037 -1107863.50397172 -516654.764174859
 479601.593260254 -874647.476134646 -772349.360815735
 654323.936882237 -440593.945343413 -984523.535456928
 755990.228980184 130886.163030945 -1001447.46089472
 741981.401090418 621127.084674210 -809453.010395891
 657830.892403574 921382.377780036 -556652.909661737
 556781.488860837 1077425.67182877 -347415.782982277
 461612.365176728 1156240.28800577 -203891.764490943
 378841.048498279 1197762.40464595 -115732.937871808
 312138.742692000 1220438.27165902 -68185.4918553325
 269041.516568318 1231567.48388198 -49067.5649098677
 -77783.6183072650 -1258968.73157512 -22290.6383516541
 -83575.6735862463 -1257973.54230269 -45465.4216959073
 -86306.4952684301 -1254678.86664703 -99406.0429891509
 -78907.6497915835 -1243566.31834247 -197144.174672965
 -53323.0448918083 -1208547.94883595 -357935.663446429
 445.060190908188 -1108878.35976526 -601612.845677925
 91350.8799894508 -861696.489869803 -916888.001333951
 211527.335618706 -376631.561770030 -1185307.67477633
 314139.193671571 262119.180087888 -1193381.55396687
 353473.125131691 771235.231918221 -933703.592033701
 342325.721794147 1044842.97824969 -618599.775233866
 309700.120458330 1164659.19208421 -373100.834360907
 270567.835689528 1213950.72493502 -211343.593796856
 231194.871200873 1234961.68524263 -113877.119879533
 196073.217148977 1244738.24370207 -61085.4246223154
 171680.503028730 1249216.96931042 -39143.3185312949
 -171680.440838306 -1249216.97404837 -39143.4400882305
 -196073.131161455 -1244738.25069728 -61085.5580850819
 -231194.738898640 -1234961.69508551 -113877.281738112
 -270567.645927979 -1213950.72960164 -211343.809929658
 -309699.853471401 -1164659.16841002 -373101.129879333
 -342325.343435356 -1044842.86595416 -618600.174285072
 -353472.596995983 -771234.927015089 -933704.043818971
 -314138.503593046 -262118.630477039 -1193381.85633774
 -211526.593076977 376632.135384903 -1185307.62502213
 -91350.2480293986 861696.845325096 -916887.730237840
 -444.589907635958 1108878.51832227 -601612.553777068
 53323.3825776613 1208548.00360870 -357935.428202987
 78907.8891114475 1243566.33121423 -197143.997690276
 86306.6649664594 1254678.86617155 -99405.9016547387
 83575.7898634756 1257973.53858361 -45465.3108543747
 77783.7035530320 1258968.72811330 -22290.5364068801
 -269041.481031492 -1231567.48574035 -49067.7131168396
 -312138.687767042 -1220438.27707634 -68185.6463264645
 -378840.968448178 -1197762.41185603 -115733.125288432
 -461612.246793540 -1156240.29243338 -203892.007402800
 -556781.328954440 -1077425.64842518 -347416.111834596
 -657830.668946552 -921382.274561919 -556653.344582954
 -741981.069256401 -621126.806670704 -809453.527893439
 -755989.749542527 -130885.664437579 -1001447.88798535
 -654323.340852397 440594.498056342 -984523.684233747
 -479601.015959720 874647.870841369 -772349.272312739
 -311858.051034550 1107863.71915449 -516654.591293904
 -186666.198603005 1208657.03377036 -309601.899114794
 -103900.700872723 1246163.31579247 -166826.453688369
 -53412.5449411861 1258104.39298793 -76615.0592660482
 -25589.6661406773 1261060.54428354 -24917.9364526457
 -13628.4286936584 1261491.42282993 -1756.97945561825
 -370682.316005724 -1204879.78488486 -49079.0739053450
 -431460.531231776 -1183771.31640433 -63849.1297239141
 -525630.958756743 -1142249.70992334 -102601.785050102
 -641160.645551570 -1072380.82127006 -174533.182194679
 -770237.413942928 -956904.830634579 -287431.560879579
 -900836.121562551 -764962.678696100 -441447.407070404
 -1004461.17166168 -456392.770568524 -611811.101988016
 -1029063.59959369 -21256.8102434290 -729469.455788600
 -934986.901173057 453373.761445715 -715402.794225967
 -754859.572821712 828841.431376658 -578583.043194206
 -560582.917199351 1056377.94157706 -401698.728417986
 -396515.303630148 1172167.23721109 -245660.360894826
 -273565.584352719 1224727.79610672 -129433.872770152
 -187775.565204884 1246467.86835998 -51064.8722417831
 -132536.781190801 1254580.05223568 -3510.70973830849
 -103846.146570838 1257141.59723954 18984.5529672784
 -477096.008910161 -1167298.35908038 -36652.0134398931
 -553130.555603834 -1132903.85423184 -46096.3821030548
 -667394.265606133 -1068000.32629450 -74226.8697295584
 -800215.547411502 -966932.673296921 -127458.675305899
 -937338.533207217 -818339.509885186 -208005.652915421
 -1062337.57629528 -605458.185577401 -310497.488600690
 -1149652.68002114 -312709.377644785 -414802.352177733
 -1164473.71833634 51909.5323815096 -482551.334751885
 -1084912.36847947 432308.498902580 -477099.513116300
 -930685.046858934 751385.656094426 -400991.733440586
 -748380.200744307 972892.023645142 -291474.898371239
 -575794.324083801 1107411.67777242 -183438.554303927
 -430907.000134557 1181938.35414863 -94288.4677276391
 -318595.332575803 1220339.28175203 -28609.1312836234
 -239102.643095531 1238616.52003967 14438.6034125593
 -194314.870112014 1245984.64033260 36241.3883225616
 -587474.904272645 -1116385.40639030 -10309.8092884283
 -674682.203975069 -1065900.16793585 -14497.8119941180
 -798952.722163426 -975783.354331623 -32723.4484113650
 -932432.599871489 -846910.552639436 -69723.6935611828
 -1056996.17094872 -677312.481649981 -124725.008397806
 -1157701.91766214 -463360.608011948 -191239.764963155
 -1218499.84712505 -203569.001598605 -255670.129392012
 -1222348.81890241 91764.8969271006 -298315.268698716
 -1160159.02437710 392672.950805842 -302305.181531449
 -1041297.99109660 660507.125113105 -266417.458759657
 -889417.757320001 870960.687685969 -204726.560046317
 -729006.617049395 1020772.47442624 -134619.235887266
 -577954.904729028 1119274.29841775 -68866.5660539258
 -447685.391732464 1179370.04265259 -14612.4413408914
 -346694.116648543 1212743.30448651 24623.1156310051
 -285712.681156595 1227918.13284934 46203.3956007903
 -697784.377941017 -1050620.12232860 29047.3988276111
 -790492.218049459 -982778.956378008 28583.3347031875
 -913480.012572259 -869954.479519484 16819.6645008961
 -1034006.80638021 -722687.513925311 -10105.0727267963
 -1135368.85081047 -547702.565195439 -50088.9569325990
 -1208513.57295287 -348702.770680084 -97214.9814981183
 -1246887.19019534 -128339.900964028 -142655.654168625
 -1244621.80941641 107240.582191354 -175969.997372412
 -1198760.08692625 344932.335107100 -188534.795486378
 -1112551.29513951 567618.560746262 -177730.740443807
 -995040.265715173 761383.729476860 -147441.910637173
 -857866.836068191 919024.736824108 -104916.421968557
 -713175.162454586 1039030.22260134 -57851.6646072902
 -573606.011669349 1123545.35155739 -13092.6425721165
 -454043.388166435 1176794.47296801 23426.5015150054
 -375993.435142710 1203371.93757450 45545.0052884549
 -798350.263868653 -973894.484333674 75603.0454694319
 -890354.405387093 -890535.247805151 75930.4691370186
 -1002708.84295500 -762777.985066918 65529.7846482563
 -1103700.08602112 -609644.722960678 41579.5959831376
 -1181529.19847576 -442141.556003763 7002.03704364128
 -1232872.39863779 -265500.883548641 -32929.6284663922
 -1256859.86547113 -81616.6817993299 -72051.5561172599
 -1252647.88664222 107635.871589084 -104101.979601659
 -1219566.51392214 298094.428233098 -123881.640670201
 -1158085.16648289 483590.340008552 -128563.451811376
 -1070021.21602110 657771.445168419 -118070.970626734
 -958349.556136462 814973.724655868 -94516.5979738042
 -827938.494234729 949878.095333294 -61635.0930012794
 -687650.068941088 1057394.83915145 -24555.4014455003
 -553859.865268383 1133439.89757729 10133.0717866074
 -457427.934459710 1175238.03016196 33536.3706430618
 -870973.656564892 -905499.795260318 114124.674249079
 -957591.808307419 -813610.610599518 112272.587488487
 -1056883.31105239 -681647.761638493 99515.9624941333
 -1141613.54809756 -531765.915744544 74114.4289016283
 -1203705.18341783 -375617.782592034 39427.7026042663
 -1242638.76773067 -217711.339509509 310.645681743357
 -1259621.44798498 -58621.8707028472 -38297.7149510693
 -1255383.35664745 102004.403654927 -71813.3720593436
 -1229930.83973630 263681.770955646 -96392.3443547370
 -1182839.41832980 424828.230508808 -109367.801143340
 -1113321.47817555 583168.921871856 -109447.365042649
 -1020376.52362094 735547.370150113 -96701.8470736076
 -904012.331706216 876941.422517151 -72697.1561729922
 -768368.305393095 999742.187666879 -40928.4300375870
 -627148.397748371 1094612.94888142 -7537.25823607046
 -513444.727108526 1152226.46303223 17266.1811537332
 535394.647034042 -1141134.69880871 52092.2453057352
 652984.911922460 -1079042.54625251 28763.1552070452
 797586.683013816 -977426.092789583 -6568.64765851553
 933195.623959115 -847826.558452849 -43422.1731896275
 1046005.84984699 -701377.407561832 -74100.7770989830
 1133123.82890071 -546590.429272309 -93908.0503698631
 1196002.54397836 -388599.885249940 -100585.659514596
 1236853.30059903 -230156.299284442 -93655.8680271739
 1257283.80605064 -72796.0855295451 -74078.2821976527
 1258070.32896311 82821.0312411363 -44149.2365252603
 1239058.36112275 237129.985348396 -7292.37268916464
 1198925.08078064 391256.284109289 32351.2246919538
 1135527.81213392 545144.551351416 70309.5791564654
 1048328.73035695 694345.922062411 102176.536163822
 944969.420192612 826484.539599910 124521.209527203
 854383.344915874 918155.254615309 136269.803227326
 477149.337941519 -1166550.29104745 55121.3087475159
 577632.527472171 -1121082.14085691 32633.2281079234
 715891.194489291 -1038765.52396924 -3926.16664993493
 857855.456193142 -923879.671021726 -45604.8316672397
 986164.816107401 -782235.657808083 -84473.4398753015
 1092529.94792368 -620390.053084203 -114210.007630781
 1173438.86650282 -444532.922433359 -130311.696989891
 1227502.70327062 -260442.863891482 -130215.433149407
 1254265.81502391 -73797.1583878147 -113669.149707606
 1253968.17232702 110459.935838481 -83137.5744434778
 1227154.48493024 289404.713219953 -43430.5537682752
 1173919.71482565 462019.128994225 -508.434895987138