# OOMMF OVF 2.0
#
# Segment count: 1
#
# Begin: Segment
# Begin: Header
#
# Title: Oxs_MinDriver::Magnetization
# Desc: Oxs vector field output
# Desc:  MIF source file: C:/Users/grl31/Documents/GitHub/phd-work/Skyrmions/stdprob3/drive-70/stdprob3.mif
# Desc:  Iteration: 541, State id: 1147
# Desc:  Stage: 0, Stage iteration: 541
# Desc:  Stage simulation time: -1 s
# Desc:  Total simulation time: -2 s
# meshunit: m
# meshtype: rectangular
# xbase: 3.1249999999999999e-09
# ybase: 3.1249999999999999e-09
# zbase: 3.1249999999999999e-09
# xnodes: 16
# ynodes: 16
# znodes: 16
# xstepsize: 6.2499999999999997e-09
# ystepsize: 6.2499999999999997e-09
# zstepsize: 6.2499999999999997e-09
# xmin: 0
# ymin: 0
# zmin: 0
# xmax: 9.9999999999999995e-08
# ymax: 9.9999999999999995e-08
# zmax: 9.9999999999999995e-08
# valuedim: 3
# valuelabels: Magnetization_x Magnetization_y Magnetization_z
# valueunits: A/m A/m A/m
#
# End: Header
#
# Begin: Data Text
 501892.088868484 -1157377.09846546 -11489.7344555439
 608587.441774534 -1104335.14299637 -40182.6900102996
 744483.836164658 -1015911.15841869 -72234.1111172091
 879033.520032577 -899394.318160407 -99696.3491752220
 997994.283550450 -762601.961725094 -118300.840625144
 1095832.03423745 -612337.041609107 -125478.807498977
 1171116.17053791 -453456.525988318 -120056.341199386
 1223665.89115970 -289403.385889149 -102161.137264596
 1253408.45231201 -123069.552963276 -73284.1573956832
 1260305.16727418 43108.4289274972 -36359.0376157661
 1244344.99728984 207689.980742266 4453.14921965138
 1205248.24495137 370093.919099424 44233.3585229065
 1142705.59174316 528907.898124137 77651.7663660775
 1058568.77894468 679069.447767151 99228.3037834585
 962249.098759729 809147.476988021 104434.014281570
 880170.949843548 898861.648714453 94320.0214206674
 447938.694923328 -1179196.97437377 19870.8866706010
 538962.578007018 -1140625.61612565 -6478.75489326493
 667456.902135531 -1069781.88933177 -40217.2098529104
 805433.246801335 -968169.051034388 -73995.9761418429
 936852.047361923 -838631.964251650 -102733.153403109
 1052227.19527379 -685161.036556153 -122154.469547781
 1145620.34897200 -512321.477930921 -128957.939619483
 1212792.31134888 -325540.809454000 -121274.159786943
 1250742.74411499 -131577.536607470 -99395.0241358770
 1258269.22468783 62432.2671933851 -66409.3452423887
 1235996.88548358 251175.824651862 -27781.9204575189
 1185327.86666161 431794.512770323 10038.8333897920
 1108083.10080020 601697.643421607 40758.0487860459
 1008752.90048155 755318.863809534 58825.4253065550
 900015.178527775 881961.433164984 60548.6560390844
 812062.366510166 964238.399103908 48460.8451267196
 368418.253336630 -1205883.28997104 40778.8241119163
 442230.405996081 -1181395.85307037 16897.8483727251
 556742.190317192 -1131927.78108466 -18084.8790022385
 692860.928074299 -1052610.70316237 -59193.5203801714
 836722.112369223 -938666.301028325 -101740.419230224
 976130.795581646 -786868.970087554 -139840.354509882
 1098684.73245067 -597249.639931263 -166535.753520778
 1191524.24902583 -375721.663161941 -175078.915730042
 1243725.28298799 -136000.832440884 -161866.071030293
 1250594.42919374 103619.895566566 -129714.771060622
 1214924.44803017 328450.165780673 -87341.3137993715
 1143358.73302767 531276.130159718 -45010.1327573160
 1043455.91533988 708959.751645843 -11191.7026149871
 925141.304851006 857666.929628581 8392.54425156115
 805510.792240021 970863.366298615 11230.2485782658
 715738.800996312 1038877.57587331 884.316073952689
 278626.953588901 -1229576.01788585 45379.1570294775
 335964.700816135 -1215785.40361783 23302.4263609080
 432185.903115074 -1185153.82575124 -13235.7612080289
 558364.273784988 -1129546.48849427 -62477.9882021208
 707279.247594458 -1037516.09586019 -121925.582517384
 868929.482738793 -895574.512328486 -185626.716325642
 1026375.18748218 -692406.519037714 -242232.569721650
 1154181.51092462 -428370.101662488 -275524.094700221
 1225436.67248984 -126363.967234236 -271820.787322827
 1227827.69548897 173192.456682093 -232363.839823696
 1170303.26739320 437862.367841645 -173828.191257547
 1071277.39925892 656260.373126545 -115049.934462379
 947949.996182819 829607.520898871 -68495.2328558389
 815934.771399637 961354.197734536 -39974.8200516651
 693674.021813230 1053296.77779367 -30523.4380417435
 608040.038450831 1104782.39795871 -35952.6872468915
 186323.943596520 -1247200.41667291 36385.9809889109
 227778.001848123 -1240737.88237357 15366.1978436537
 302700.550829728 -1224484.21496327 -23668.8561642896
 410600.956990976 -1190015.20107758 -82583.9345232687
 552668.432105352 -1122300.40997846 -162938.101238928
 726399.920333911 -997723.235128334 -261612.180035437
 916438.670814915 -787011.680764187 -363733.704644860
 1084513.66074756 -474024.298324538 -436669.801072617
 1177640.30374438 -91499.9816345497 -443103.260286662
 1170080.28251092 279255.834389981 -380102.278810941
 1084778.34943860 577831.747234500 -284457.088848483
 959695.790271255 795845.683403109 -192777.252971458
 821954.601330607 949122.204392561 -122910.965334272
 688618.291688724 1054085.72006159 -79104.8293904694
 574410.701046156 1121635.72812853 -59456.4616186116
 498603.392138599 1157381.95063221 -58404.6968798561
 93957.0947967610 -1257929.97839608 18266.4914187180
 119514.329093988 -1255890.43972507 -2226.98615359258
 170263.197494585 -1249228.97500375 -44574.0115870378
 251355.552681295 -1230952.79455984 -114564.543470242
 371053.188565343 -1185586.39303370 -219667.628083396
 536810.303656539 -1082136.99905925 -363818.146983036
 742863.105488966 -869551.803576886 -532525.584660894
 945490.352737934 -501012.644722737 -668269.222414424
 1059864.64290667 -18268.7907170688 -684034.078771667
 1041468.03016874 427299.479428107 -569481.279706257
 935507.048406423 741425.609596074 -408245.096401594
 800902.362951135 937416.735066083 -267123.006789544
 668102.765571886 1057085.76291878 -166606.768735734
 549553.289755312 1130737.96932834 -104748.543461388
 453480.435297102 1174909.21797141 -74116.4978092244
 391777.154054280 1197342.23653360 -66570.7224896682
 1273.43244254025 -1261557.38299095 -4558.36701066037
 10277.3455918954 -1261284.52078140 -24600.0960116885
 33588.9168748475 -1259165.99986385 -70158.3948575962
 78909.3817399271 -1250025.32479164 -150862.280812398
 157554.336432079 -1219717.64208939 -281095.954375550
 283935.543451314 -1133388.14320025 -475774.479072852
 466154.223521836 -919190.767872964 -727556.185506535
 672429.223095967 -489417.398483022 -948608.971551303
 802463.856517211 104089.850518535 -967866.981005917
 793219.855370060 609357.150182997 -768788.368464633
 702083.708735729 910102.485193368 -519943.615492769
 593230.791898703 1065390.98543341 -323370.849984080
 491554.999203875 1145727.11199350 -192957.245315320
 403716.922575106 1189665.22120888 -115146.596960030
 333612.787039095 1214322.48923921 -75318.2007940498
 288718.186469677 1226501.04800782 -62341.1497835417
 -92802.5909938598 -1257835.86086086 -28036.7108663455
 -101331.226578262 -1256608.97576906 -47066.9252845801
 -108575.792585523 -1253349.84269649 -94206.6876398263
 -106940.189738192 -1243801.80411542 -181852.409433950
 -87142.4197000448 -1214609.74297948 -329664.680951870
 -35831.4431605891 -1128786.79771419 -562232.962308446
 63808.1686640093 -900416.620120786 -881321.654528561
 212604.622840112 -411536.979798845 -1173450.47595713
 349387.570681282 265076.920693587 -1182882.91157155
 401298.251899591 787492.490401944 -900202.600252759
 386923.328538609 1050852.58318589 -580989.343416125
 347024.545532485 1162336.54327148 -346550.365592996
 300702.764684487 1209117.15859901 -197896.374427418
 255373.650592846 1230474.09390679 -110757.544781850
 216012.411828016 1241220.96710640 -65257.7939456632
 189237.876916291 1246351.26685035 -48445.6033062055
 -189237.861229023 -1246351.27169408 -48445.5399698884
 -216012.393381300 -1241220.97348497 -65257.7336845988
 -255373.628907467 -1230474.10448304 -110757.477283651
 -300702.743608465 -1209117.17991290 -197896.276227642
 -347024.527747924 -1162336.59092806 -346550.223560778
 -386923.321248665 -1050852.68328768 -580989.167213931
 -401298.265841218 -787492.704824360 -900202.406462124
 -349387.631201559 -265077.280799730 -1182882.81299803
 -212604.714203841 411536.632241513 -1173450.58129457
 -63808.2404775063 900416.422189006 -881321.851549403
 35831.4035386502 1128786.71073147 -562233.139467457
 87142.4017183789 1214609.70691099 -329664.818595055
 106940.187151433 1243801.79065373 -181852.503027983
 108575.796142306 1253349.83742092 -94206.7537279739
 101331.231988827 1256608.97337880 -47066.9774520079
 92802.5926060849 1257835.85960797 -28036.7617391079
 -288718.156014020 -1226501.05863827 -62341.0816879369
 -333612.754214525 -1214322.50276332 -75318.1281430281
 -403716.881920636 -1189665.24252933 -115146.519221690
 -491554.952471947 -1145727.14802208 -192957.150436183
 -593230.741112150 -1065391.05113934 -323370.726675588
 -702083.667245638 -910102.601682802 -519943.467615532
 -793219.832086631 -609357.365094342 -768788.222144883
 -802463.889506135 -104090.168326884 -967866.919475669
 -672429.319476494 489417.097312881 -948609.058614331
 -466154.328542157 919190.589391893 -727556.343710745
 -283935.616097368 1133388.06202940 -475774.629083559
 -157554.381667568 1219717.60815123 -281096.076283798
 -78909.4073502538 1250025.31301990 -150862.364955890
 -33588.9305967132 1259165.99625816 -70158.4530012527
 -10277.3506815376 1261284.51983066 -24600.1426308811
 -1273.43820382426 1261557.38281211 -4558.41489410143
 -391777.106672278 -1197342.25599361 -66570.6513307092
 -453480.386141271 -1174909.24129945 -74116.4287676812
 -549553.233625287 -1130738.00310817 -104748.473296238
 -668102.708275691 -1057085.81238946 -166606.684615466
 -800902.296456787 -937416.819787616 -267122.908842486
 -935506.993087456 -741425.736923894 -408244.991923087
 -1041468.00078414 -427299.678751169 -569481.183886525
 -1059864.66818056 18268.5376396252 -684034.046370483
 -945490.434898310 501012.413397116 -668269.279599740
 -742863.203564062 869551.652360416 -532525.694766704
 -536810.387021216 1082136.92021005 -363818.258507437
 -371053.245702184 1185586.35708216 -219667.725607276
 -251355.590655935 1230952.77956255 -114564.621293854
 -170263.214190399 1249228.97071500 -44574.0680087504
 -119514.337043634 1255890.43888512 -2227.03321077520
 -93957.0984783725 1257929.97879384 18266.4450892990
 -498603.335915763 -1157381.97766492 -58404.6411602841
 -574410.638947930 -1121635.76320813 -59456.3997808757
 -688618.224695427 -1054085.76842788 -79104.7680868929
 -821954.537681698 -949122.268256880 -122910.897817624
 -959695.728953514 -795845.774736297 -192777.181174851
 -1084778.30192568 -577831.871893119 -284457.016813944
 -1170080.26318602 -279255.998577677 -380102.217672935
 -1177640.32715384 91499.7919335543 -443103.237243954
 -1084513.72123372 474024.127400817 -436669.836394307
 -916438.747818986 787011.559172332 -363733.773719267
 -726399.986696956 997723.166029263 -261612.259296385
 -552668.480995708 1122300.37529283 -162938.174319060
 -410600.988116647 1190015.18560366 -82584.0027443837
 -302700.565183180 1224484.21037653 -23668.9098881737
 -227778.004646986 1240737.88247836 15366.1478943970
 -186323.941377639 1247200.41842382 36385.9323350840
 -608039.973202074 -1104782.43536973 -35952.6411532899
 -693673.955480100 -1053296.82298488 -30523.3860754079
 -815934.701037459 -961354.259584447 -39974.7688011460
 -947949.935747396 -829607.594264965 -68495.1806579002
 -1071277.34833197 -656260.466481774 -115049.876153315
 -1170303.23265892 -437862.481043897 -173828.139957620
 -1227827.68574560 -173192.586306766 -232363.794692573
 -1225436.69043536 126363.833122251 -271820.768765831
 -1154181.55002502 428369.984558455 -275524.112974147
 -1026375.23665694 692406.432389093 -242232.609040521
 -868929.524713382 895574.460900171 -185626.767961134
 -707279.279905585 1037516.06775052 -121925.634280408
 -558364.296375985 1129546.47415583 -62478.0455331975
 -432185.902801832 1185153.82525720 -13235.8156739278
 -335964.695428883 1215785.40619092 23302.3697831601
 -278626.940111645 1229576.02291792 45379.1034325092
 -715738.733902767 -1038877.62205774 884.362976456647
 -805510.726938648 -970863.419914759 11230.2972864935
 -925141.243300577 -857666.995521428 8392.59533532637
 -1043455.86232206 -708959.830457783 -11191.6532271993
 -1143358.69140321 -531276.223819952 -45010.0845956373
 -1214924.42477289 -328450.264373725 -87341.2665470095
 -1250594.42454670 -103619.995673537 -129714.735894832
 -1243725.29627570 136000.740171551 -161866.046457142
 -1191524.27332147 375721.583069955 -175078.922261075
 -1098684.75935646 597249.584221936 -166535.775806633
 -976130.819567772 786868.933592972 -139840.392430670
 -836722.128102669 938666.282642408 -101740.459467106
 -692860.932848416 1052610.69738528 -59193.5672302753
 -556742.176867316 1131927.78685792 -18084.9317093304
 -442230.387057825 1181395.86094375 16897.7935426027
 -368418.230488182 1205883.29884551 40778.7681077790
 -812062.294709939 -964238.456836726 48460.8995635794
 -900015.112421699 -881961.496791853 60548.7118623048
 -1008752.84727931 -755318.930441528 58825.4820762182
 -1108083.06044637 -601697.714153713 40758.1016849098
 -1185327.83646646 -431794.594547059 10038.8812443789
 -1235996.87007914 -251175.905192377 -27781.8776240294
 -1258269.22263615 -62432.3438706148 -66409.3120306356
 -1250742.75276360 131577.470196874 -99395.0032188343
 -1212792.32644054 325540.752868375 -121274.160758962
 -1145620.36475805 512321.438417151 -128957.956360839
 -1052227.20527693 685161.016371807 -122154.496595156
 -936852.048798236 838631.958771157 -102733.185043356
 -805433.236398975 968169.056668528 -73996.0156521842
 -667456.877022737 1069781.90325570 -40217.2562542028
 -538962.550094574 1140625.62903823 -6478.80356652836
 -447938.667913345 1179196.98551227 19870.8345505862
 -880170.875434020 -898861.714624177 94320.0876778100
 -962249.038358118 -809147.540768525 104434.076651627
 -1058568.72862094 -679069.516746787 99228.3685751954
 -1142705.55735170 -528907.963559125 77651.8267669057
 -1205248.22119555 -370093.990853887 44233.4054506611
 -1244344.98554465 -207690.050332404 4453.18557500205
 -1260305.16610677 -43108.4904524970 -36359.0051355929
 -1253408.45900109 123069.498190569 -73284.1349718990
 -1223665.90200452 289403.342836051 -102161.129328827
 -1171116.18138326 453456.495159228 -120056.351848457
 -1095832.03688361 612337.033126733 -125478.825783593
 -997994.279055241 762601.963755031 -118300.865461470
 -879033.503240002 899394.331351232 -99696.3782382945
 -744483.803970285 1015911.17958150 -72234.1452929569
 -608587.407163462 1104335.16053073 -40182.7323183713
 -501892.057004221 1157377.11183824 -11489.7792844201
 513350.323151043 -1152288.53296919 15874.9307839681
 626851.651152171 -1094773.29920665 -8823.92831718865
 767921.725869562 -1000037.84998694 -42070.8028205959
 903523.729673906 -877361.024392790 -73701.6533840561
 1019937.78648177 -736036.635599220 -97603.3487202030
 1112983.61765114 -583654.621771590 -110291.342560447
 1182613.81159180 -425241.980690213 -110196.467320533
 1229801.47406417 -263974.370815392 -97238.3507735959
 1255320.28265647 -102151.825556831 -72700.9175021319
 1259592.46464458 58615.9355018810 -39248.2615511408
 1242620.80757654 217812.830382466 -728.297717209533
 1203697.94589073 375760.971674189 38267.1940943720
 1141655.11264221 531858.976363910 72794.6698460324
 1057059.67594932 681592.865991986 98007.3335505718
 958016.909002620 813342.873075357 110573.069965266
 871693.706045718 905037.411467780 112279.996450548
 457465.150370967 -1175258.88870409 32274.0086918580
 553760.388925678 -1133498.56788193 8936.39667033275
 687417.453962789 -1057520.00953764 -25653.5442733616
 827628.478895234 -950083.021071930 -62632.1396037989
 958028.802676249 -815243.797549173 -95434.7668267173
 1069743.19842689 -658065.927816299 -118946.017107075
 1157877.40669262 -483856.300343923 -129431.150065248
 1219429.55900742 -298284.564205874 -124768.987711050
 1252563.24816744 -107722.753396715 -105026.418865960
 1256802.67074996 81631.2950946107 -73026.0869545059
 1232827.09467504 265580.201773962 -33969.7215141198
 1181507.62537737 442215.618010404 5874.46012533636
 1103756.41807171 609626.033857406 40339.7983106031
 1002938.83996566 762591.848679079 64162.1892980158
 890859.218547654 890155.897338368 74443.0123070152
 799137.475498609 973369.151992599 74035.2626920053
 376145.000530234 -1203365.67381421 44445.7487362581
 454124.428901758 -1176784.01236085 22356.7047102674
 573600.757553920 -1123535.59912488 -14119.4671152208
 713088.355223275 -1039034.68663914 -58833.2263659246
 857718.265981195 -919054.862022237 -105862.966680768
 994860.217408516 -761437.979653852 -148373.791073407
 1112369.70544784 -567679.585658819 -178669.967669616
 1198595.95799925 -344975.615664035 -189496.662197592
 1244480.68849822 -107247.891042787 -176960.833917610
 1246767.24129515 128367.711669314 -143675.354716860
 1208419.92711401 348733.581046057 -98262.9132660321
 1135333.36503121 547676.168363199 -51170.2625834970
 1034097.37070555 722541.321232056 -11229.3335091210
 913784.697745859 869656.331002310 15646.8217879600
 791075.056078798 982344.500098510 27367.3107025597
 698613.579533157 1050102.58770518 27803.8253789976
 285908.363861002 -1227907.66336649 45261.5580723120
 346869.919413793 -1212711.78009387 23681.8146764904
 447830.778134019 -1179302.70237449 -15561.5309999157
 578049.696736657 -1119165.60023788 -69830.7830816998
 729026.685753270 -1020627.86369849 -135603.415225451
 889346.421611976 -870796.400142260 -205732.843231725
 1041135.23572109 -660348.828848143 -267443.968146276
 1159927.63710809 -392552.390358676 -303347.867003366
 1222094.82976669 -91704.5911753057 -299372.553741735
 1218275.70848827 203569.571044808 -256735.581427629
 1157551.27245726 463299.590339510 -192296.573403630
 1056965.86640131 677168.492519630 -125759.377066574
 932580.519559427 846663.975257910 -70732.7255073366
 799330.742334664 975440.070382665 -33711.4872043786
 675306.752251261 1065490.89311597 -15471.8444197607
 588292.740673944 1115945.28321982 -11278.6102299489
 194481.448156736 -1245981.98764344 35429.9832051209
 239281.725149035 -1238591.36907984 13605.4169207938
 318788.682179980 -1220267.76252643 -29492.2832559991
 431091.738268178 -1181794.45594359 -95242.8895869901
 575922.726591930 -1107173.66025850 -184469.319789697
 748386.875826017 -972560.489996105 -292562.144353747
 930509.932832661 -751015.012498932 -402090.968339180
 1084553.27826979 -432023.424594859 -478172.958368144
 1164036.72463495 -51825.4407698650 -483613.542313589
 1149291.12165728 312609.892663180 -415877.871024450
 1062141.26909603 605257.683919152 -311558.167055307
 937338.718289461 818083.760913466 -209008.416682449
 800425.047073376 966636.858945500 -128383.635501239
 667814.310084728 1067678.14359749 -75079.0240295342
 553742.131106783 1132572.22521842 -46896.0320291379
 477845.358726215 1166967.21870596 -37426.6553201134
 103926.931923943 -1257145.50226507 18270.4645408253
 132646.876716628 -1254566.08504986 -4263.24511841140
 187925.866667150 -1246410.71623623 -51900.1542178386
 273739.970382839 -1224587.71816195 -130387.039465825
 396662.869585752 -1171890.88396524 -246738.231512929
 560608.925151589 -1055925.20756512 -402851.113921613
 754638.951226715 -828269.341280715 -579689.039489972
 934464.975151710 -452935.866536386 -716361.460394543
 1028417.65130883 21284.8582488244 -730379.025030645
 1003979.34559826 456100.331174480 -612819.216762645
 900629.683455968 764593.664189654 -442506.647269840
 770279.395494081 956569.879251428 -288432.227577180
 641404.287017169 1072090.22458156 -175420.984695716
 526040.369106751 1141991.18293575 -103378.426598509
 432004.231428098 1183535.22061842 -64545.7706042125
 371318.468270050 1204656.89630803 -49737.1914973567
 13585.9700200362 -1261490.81343342 -2404.15487375201
 25583.2945843395 -1261046.71296582 -25614.7159902914
 53456.9446961052 -1258053.42785653 -77416.7852675041
 103987.973381803 -1246028.24434276 -167778.266205716
 186757.229617461 -1208358.79032041 -310709.191946359
 311863.462915552 -1107315.44796270 -517825.366432011
 479372.462772454 -873892.556749807 -773345.506298260
 653758.086191569 -440044.701589265 -985144.890998936
 755290.004038834 130750.487093889 -1001993.38862224
 741506.233067099 620570.703419146 -810314.716205660
 657666.941650087 920857.494051777 -557714.174491071
 556848.939416323 1077058.53178006 -348444.556148680
 461837.884066281 1155992.57674235 -204783.696315707
 379183.220587247 1197581.27451067 -116484.364124299
 312571.619337013 1220290.93425127 -68836.3965367455
 269536.788262359 1231435.03067639 -49670.0706180806
 -77971.0301589825 -1258946.26481958 -22896.5427900458
 -83723.5935957782 -1257939.65042425 -46126.2038853554
 -86398.9400851946 -1254610.78844096 -100181.952459804
 -78943.4054712775 -1243414.68371045 -198084.057876443
 -53316.3658875391 -1208220.91528630 -359039.017256108
 454.976340084609 -1108262.56527619 -602746.472675637
 91283.0493254208 -860836.346087259 -917702.359744129
 211284.704511254 -376086.848711077 -1185523.88705800
 313784.138602218 261746.462629613 -1193556.75800588
 353222.748176897 770445.163507370 -934450.304252407
 342246.352601613 1044226.48634280 -619683.717931990
 309753.349847757 1164301.49195763 -374171.523505324
 270718.561492595 1213757.22934698 -212259.934020212
 231424.574465991 1234848.64418238 -114633.865908539
 196368.688516477 1244659.91072863 -61729.0508128903
 172022.259129230 1249151.34661601 -39732.6884369372
 -172022.244001813 -1249151.35066413 -39732.6266627859
 -196368.675591293 -1244659.91606930 -61728.9842443083
 -231424.561090146 -1234848.65403626 -114633.786764727
 -270718.545895081 -1213757.25111664 -212259.829428925
 -309753.334981299 -1164301.54081190 -374171.383793507
 -342246.346079416 -1044226.59140926 -619683.544487059
 -353222.755462357 -770445.370374214 -934450.130938764
 -313784.171530828 -261746.785458445 -1193556.67855273
 -211284.762843247 376086.528599664 -1185523.97821178
 -91283.1052923077 860836.150147149 -917702.537975668
 -455.014226323266 1108262.47081518 -602746.646331315
 53316.3511583486 1208220.87505208 -359039.154837603
 78943.3977965422 1243414.66846017 -198084.156664225
 86398.9378985198 1254610.78287300 -100182.024075002
 83723.5944468153 1257939.64821001 -46126.2627266991
 77971.0302723929 1258946.26385627 -22896.5953702422
 -269536.760807885 -1231435.03970640 -49669.9957263406
 -312571.590060379 -1220290.94587482 -68836.3234202375
 -379183.184591215 -1197581.29354279 -116484.285629406
 -461837.844729648 -1155992.60986866 -204783.598033341
 -556848.896603848 -1077058.59415733 -348444.431756153
 -657666.903802091 -920857.607050143 -557714.032547335
 -741506.209970907 -620570.910302403 -810314.578901294
 -755290.024736528 -130750.779112051 -1001993.33491498
 -653758.156191863 440044.422272295 -985144.969310919
 -479372.544522744 873892.379657136 -773345.655741293
 -311863.527261516 1107315.36161229 -517825.512330566
 -186757.274787886 1208358.75130306 -310709.316535693
 -103988.002147385 1246028.22862706 -167778.365091740
 -53456.9617693844 1258053.42276056 -77416.8562897097
 -25583.3052958164 1261046.71169990 -25614.7676147711
 -13585.9752288630 1261490.81328775 -2404.20187138224
 -371318.424480123 -1204656.91281068 -49737.1187143442
 -432004.186525287 -1183535.24097357 -64545.6978986031
 -526040.318570716 -1141991.21274926 -103378.354409657
 -641404.229255506 -1072090.27366643 -175420.895910199
 -770279.339829020 -956569.954506949 -288432.126653908
 -900629.632173335 -764593.785907153 -442506.541332943
 -1003979.31720789 -456100.515415792 -612819.126149937
 -1028417.66679062 -21285.0974821985 -730378.996259521
 -934465.038926381 452935.641949033 -716361.519203460
 -754639.036136719 828269.188793454 -579689.146830464
 -560609.000462471 1055925.12330171 -402851.229984095
 -396662.928476990 1171890.84244342 -246738.334046924
 -273740.005481188 1224587.70166996 -130387.120670669
 -187925.888332732 1246410.71025739 -51900.2193539384
 -132646.887562436 1254566.08371951 -4263.29914982055
 -103926.938449130 1257145.50237101 18270.4201343383
 -477845.301133522 -1166967.24422142 -37426.5950605692
 -553742.071293179 -1132572.25704011 -46895.9697838581
 -667814.246390213 -1067678.18800640 -75078.9590537482
 -800424.986989236 -966636.918529632 -128383.561477987
 -937338.662372718 -818083.844934049 -209008.338585328
 -1062141.22303799 -605257.800864913 -311558.096884809
 -1149291.09960265 -312610.053093759 -415877.811379489
 -1164036.73883541 51825.2586677252 -483613.527648265
 -1084553.32975948 432023.255705874 -478172.994172477
 -930510.002509054 751014.887909759 -402091.039800000
 -748386.941257635 972560.415105825 -292562.225933528
 -575922.776526624 1107173.62102998 -184469.399338157
 -431091.770234227 1181794.43836688 -95242.9629967267
 -318788.697427330 1220267.75705786 -29492.3447104506
 -239281.735783992 1238591.36766432 13605.3587447144
 -194481.448838923 1245981.98890786 35429.9349941266
 -588292.676799019 -1115945.31742790 -11278.5572811332
 -675306.685109851 -1065490.93643292 -15471.7918872851
 -799330.676214838 -975440.126481698 -33711.4317443242
 -932580.458905934 -846664.047218625 -70732.6638345317
 -1056965.81985163 -677168.576568110 -125759.315730648
 -1157551.23953373 -463299.696384316 -192296.516097109
 -1218275.69568656 -203569.696980843 -256735.542318362
 -1222094.84397931 91704.4566054244 -299372.536944929
 -1159927.67242592 392552.268180420 -303347.890063445
 -1041135.28214110 660348.736503941 -267444.015445418
 -889346.465666001 870796.340623445 -205732.904716686
 -729026.721619144 1020627.82993745 -135603.476509130
 -578049.713746962 1119165.58777749 -69830.8419731444
 -447830.786784691 1179302.69829233 -15561.5914090996
 -346869.916325906 1212711.78207642 23681.7583816402
 -285908.356340834 1227907.66711535 45261.5038720863
 -698613.506368542 -1050102.63504600 27803.8757704795
 -791074.989823381 -982344.551923934 27367.3656067959
 -913784.636082880 -869656.394759172 15646.8793154258
 -1034097.31878529 -722541.396357279 -11229.2809257991
 -1135333.32709735 -547676.251915905 -51170.2099699887
 -1208419.90392075 -348733.673134453 -98262.8716722572
 -1246767.23524339 -128367.808790750 -143675.320458195
 -1244480.69888036 107247.795612989 -176960.818740619
 -1198595.97937677 344975.534733917 -189496.674313429
 -1112369.73517906 567679.518253681 -178669.996731086
 -994860.243620659 761437.936818378 -148373.835145451
 -857718.285761479 919054.837848667 -105863.016281906
 -713088.365056510 1039034.67684258 -58833.2801959966
 -573600.747238302 1123535.60368000 -14119.5237184160
 -454124.411364624 1176784.02023291 22356.6465770042
 -376144.984655771 1203365.68079483 44445.6940824192
 -799137.397646397 -973369.211128430 74035.3255487911
 -890859.151881336 -890155.958899705 74443.0739798203
 -1002938.78299252 -762591.918158652 64162.2540715815
 -1103756.37602937 -609626.106169528 40339.8558506621
 -1181507.59686851 -442215.693582206 5874.50513294966
 -1232827.07856655 -265580.281874527 -33969.6798847371
 -1256802.66770759 -81631.3695982111 -73026.0560318189
 -1252563.25605745 107722.684369461 -105026.395567716
 -1219429.57280720 298284.507862243 -124768.987539339
 -1157877.42373837 483856.253990664 -129431.170859544
 -1069743.21173913 658065.900336406 -118946.049414999
 -958028.810696129 815243.783186779 -95434.8090081556
 -827628.472982848 950083.023423160 -62632.1820643412
 -687417.431939541 1057520.02266792 -25653.5931408682
 -553760.363500267 1133498.58068676 8936.34802964409
 -457465.125113838 1175258.89995703 32273.9569207709
 -871693.624051673 -905037.481606957 112280.067657406
 -958016.841958775 -813342.942274120 110573.141834566
 -1057059.62615300 -681592.933117752 98007.4038028090
 -1141655.07682501 -531859.044765759 72794.7318114050
 -1203697.92263997 -375761.041062296 38267.2440993586
 -1242620.79614734 -217812.895705855 -728.261864617685
 -1259592.46282474 -58615.9953917408 -39248.2305117616
 -1255320.28797623 102151.773953347 -72700.8981540869
 -1229801.48416147 263974.325963434 -97238.3448303170
 -1182613.82304380 425241.945726961 -110196.479340410
 -1112983.62609039 583654.601037711 -110291.367119831
 -1019937.78886844 736036.628311672 -97603.3787360707
 -903523.719102262 877361.031948867 -73701.6930347648
 -767921.701312222 1000037.86714711 -42070.8431643067
 -626851.619511007 1094773.31697090 -8823.97211634487
 -513350.285950333 1152288.55019484 15874.8834179740
 535355.725581275 -1141226.85546855 50447.4217741022
 652726.702138637 -1079238.64945880 27225.3695755731
 797162.445412205 -977761.947192093 -7939.84675630945
 932722.401805783 -848284.949901883 -44620.5766274496
 1045581.62184700 -701897.131893911 -75159.2922655286
 1132800.19915796 -547093.780063718 -94876.4223726473
 1195788.50812793 -389017.333247836 -101512.507509495
 1236730.16804750 -230439.642940523 -94580.6181075167
 1257219.90650794 -72922.7640577024 -75032.0470286560
 1258032.74503213 82846.4462499265 -45160.9310093067
 1239023.90955003 237273.454384217 -8395.85176637002
 1198893.77246887 391452.584085454 31113.1429966802
 1135539.19733050 545302.220053348 68888.6859350259
 1048473.12802828 694367.733001968 100533.487392326
 945368.008629897 826308.631419109 122649.112595145
 855085.323977774 917803.308410837 134222.228810656
 477237.584793892 -1166581.78123540 53671.8386929227
 577566.053068715 -1121155.90785203 31246.0485513161
 715670.532325851 -1038911.95265580 -5203.33626669939
 857543.886414339 -924111.282437821 -46757.3680126528
 985837.649581931 -782534.338620434 -85519.4040297687
 1092245.50248884 -620710.222483135 -115186.860868772
 1173225.29023790 -444817.599705084 -131259.865373031
 1227358.92114377 -260642.464943028 -131167.888891175
 1254171.43255079 -73883.4717155990 -114650.256431023
 1253897.19212116 110485.120508886 -84168.2877083249
 1227091.32456311 289504.599018366 -44535.3707530970