# OOMMF OVF 2.0
#
# Segment count: 1
#
# Begin: Segment
# Begin: Header
#
# Title: Oxs_MinDriver::Magnetization
# Desc: Oxs vector field output
# Desc:  MIF source file: C:/Users/grl31/Documents/GitHub/phd-work/Skyrmions/stdprob3/drive-100/stdprob3.mif
# Desc:  Iteration: 657, State id: 1405
# Desc:  Stage: 0, Stage iteration: 657
# Desc:  Stage simulation time: -1 s
# Desc:  Total simulation time: -2 s
# meshunit: m
# meshtype: rectangular
# xbase: 3.1249999999999999e-09
# ybase: 3.1249999999999999e-09
# zbase: 3.1249999999999999e-09
# xnodes: 16
# ynodes: 16
# znodes: 16
# xstepsize: 6.2499999999999997e-09
# ystepsize: 6.2499999999999997e-09
# zstepsize: 6.2499999999999997e-09
# xmin: 0
# ymin: 0
# zmin: 0
# xmax: 9.9999999999999995e-08
# ymax: 9.9999999999999995e-08
# zmax: 9.9999999999999995e-08
# valuedim: 3
# valuelabels: Magnetization_x Magnetization_y Magnetization_z
# valueunits: A/m A/m A/m
#
# End: Header
#
# Begin: Data Text
 300241.263101139 1187964.59303223 300241.137341559
 282395.996702761 1191206.77102248 304677.469851986
 253482.341372087 1196338.71429245 309951.309428710
 216809.673320160 1202242.27089888 314891.280504348
 174336.148620662 1208040.27997968 319053.318662721
 127542.422116077 1213027.44036307 322252.680991067
 77724.4712709413 1216661.80941675 324410.818240321
 26107.5288845764 1218573.13763509 325495.523914937
 -26107.2840931061 1218573.14143121 325495.529337507
 -77724.2314058183 1216661.81948973 324410.837931253
 -127542.188835172 1213027.45628287 322252.713394298
 -174335.924662193 1208040.30087237 319053.361930781
 -216809.456918312 1202242.29623837 314891.332756613
 -253482.132834045 1196338.74256342 309951.370854579
 -282395.798363575 1191206.80134746 304677.535123777
 -300241.075962059 1187964.62308894 300241.205555232
 274611.465192745 1200302.70502738 274611.344280588
 260749.362545730 1202962.44857732 276478.838546118
 235676.051629991 1207370.47388930 279754.836218016
 202433.100354666 1212575.58573631 283250.277450859
 163182.655982646 1217750.75611078 286363.314160584
 119554.491088905 1222227.28593407 288819.348551395
 72913.4654066495 1225497.72029437 290496.807270996
 24499.8758293040 1227219.41879664 291344.615758965
 -24499.6377958039 1227219.42284253 291344.618733337
 -72913.2306878068 1225497.73019316 290496.824425061
 -119554.263637370 1222227.30146787 288819.376967069
 -163182.436363217 1217750.77568232 286363.356082158
 -202432.888738606 1212575.60923065 283250.328110691
 -235675.848526399 1207370.50064404 279754.891851543
 -260749.170308315 1202962.47666830 276478.897622512
 -274611.282653298 1200302.73265294 274611.406071089
 238149.966277745 1215779.03954371 238149.850907029
 227260.480900444 1217904.42017335 237930.510994411
 206618.032492169 1221374.31759153 238962.750017328
 178302.499917948 1225508.65400512 240595.487074316
 144191.564051655 1229657.70798969 242281.127941963
 105854.980018470 1233268.30849015 243707.680219725
 64633.6854825217 1235914.85852484 244716.938721893
 21729.2099161140 1237310.30377452 245235.569460833
 -21728.9811201085 1237310.30698028 245235.573558955
 -64633.4602691563 1235914.86775868 244716.951569825
 -105854.760561785 1233268.32240352 243707.705133351
 -144191.351587765 1229657.72519378 242281.167071474
 -178302.296155825 1225508.67430183 240595.534695653
 -206617.837303848 1221374.34119177 238962.798161565
 -227260.296887686 1217904.44434748 237930.563013932
 -238149.791557384 1215779.06296087 238149.906080436
 196461.946684163 1230591.27270836 196461.838426806
 187882.812610613 1232152.72354715 195061.901712782
 171420.478741473 1234644.44989338 194467.305052707
 148441.841406211 1237603.95196874 194553.099975898
 120373.281907118 1240583.69052204 194966.178432520
 88538.1806790650 1243186.46893717 195442.638471038
 54123.4689234655 1245099.35573304 195825.624941693
 18205.7583886725 1246109.42867375 196033.856899360
 -18205.5405596320 1246109.43117580 196033.861224562
 -54123.2544584155 1245099.36295801 195825.638278909
 -88537.9713351535 1243186.47980934 195442.664150078
 -120373.078138472 1240583.70469004 194966.214088404
 -148441.645240340 1237603.96871475 194553.143122381
 -171420.292428396 1234644.46868702 194467.349967204
 -187882.638752105 1232152.74261163 195061.948747385
 -196461.783102999 1230591.29117114 196461.886361406
 152662.309271464 1242955.30933580 152662.206327591
 146105.764092956 1243964.28352717 150848.924180828
 133540.574906942 1245546.50619498 149433.084281749
 115885.852061103 1247412.60841194 148599.073301059
 94154.1284872205 1249290.10531934 148184.559785997
 69354.8224148996 1250932.40062101 148011.717790586
 42437.1296864762 1252141.26441536 147955.313832361
 14281.4013682051 1252780.23863797 147943.050435293
 -14281.1942644824 1252780.24041493 147943.055380216
 -42436.9260204811 1252141.26937938 147955.330238182
 -69354.6228016338 1250932.40861181 148011.743789658
 -94153.9348285826 1249290.11589685 148184.593658299
 -115885.665344504 1247412.62104469 148599.112867561
 -133540.398404155 1245546.52001576 149433.126814825
 -146105.600081584 1243964.29764246 150848.966634340
 -152662.156054416 1242955.32280765 152662.249858668
 108495.271023304 1252200.86403438 108495.175911616
 103849.267835182 1252737.73309489 106831.327658700
 94989.2839684658 1253569.98129148 105303.223383699
 82524.9165278252 1254544.92258261 104192.640302518
 67127.9703169001 1255523.55766436 103459.473562971
 49495.3769798053 1256379.55445467 103005.115042248
 30305.8168059504 1257010.04098199 102746.023072112
 10202.3005859109 1257343.48885258 102628.919032210
 -10202.1031714063 1257343.48998041 102628.924839473
 -30305.6222295951 1257010.04416150 102746.041565271
 -49495.1862645063 1256379.55965165 103005.143294491
 -67127.7853681332 1255523.56482084 103459.506716816
 -82524.7400130921 1254544.93108508 104192.677734418
 -94989.1200515106 1253569.99026805 105303.264385140
 -103849.116815280 1252737.74215405 106831.368232377
 -108495.130072313 1252200.87288326 108495.214732889
 64742.1870170457 1258239.38128196 64742.1001389614
 61964.7602003593 1258437.32694742 63602.6222549432
 56692.0695743992 1258742.08242211 62480.4777988633
 49279.0165543444 1259097.33239797 61602.8976160548
 40109.9834067484 1259453.12103731 60979.1444631133
 29590.9493600747 1259764.14255600 60564.9384138079
 18125.8372695101 1259993.25423898 60314.8755657388
 6103.28281439512 1260114.45512833 60197.5151852605
 -6103.09588391503 1260114.45571491 60197.5218584521
 -18125.6517186840 1259993.25591173 60314.8963830051
 -29590.7677402421 1259764.14546801 60564.9665793587
 -40109.8081249181 1259453.12501000 60979.1777057528
 -49278.8513836277 1259097.33699123 61602.9358622792
 -56691.9175397808 1258742.08725215 62480.5184415913
 -61964.6223888638 1258437.33172804 63602.6619283369
 -64742.0589079472 1258239.38588561 64742.1387777026
 21508.0623117098 1261199.52459107 21507.9833043683
 20583.6277801564 1261221.75345146 21105.3028215971
 18833.1023270680 1261255.86778006 20697.3709938463
 16373.6860232028 1261295.53327183 20369.3660552252
 13330.6486442664 1261335.20623546 20130.1325533360
 9837.11507718068 1261369.87157888 19967.7028969679
 6026.85368439999 1261395.40658636 19867.9691076410
 2029.58569963265 1261408.91575142 19820.6701113595
 -2029.41051636749 1261408.91593488 19820.6763731449
 -6026.67957615952 1261395.40709937 19867.9893510589
 -9836.94569290106 1261369.87245989 19967.7306899206
 -13330.4856410086 1261335.20747269 20130.1629739931
 -16373.5323836660 1261295.53467295 20369.4027971049
 -18832.9621461068 1261255.86917383 20697.4136144710
 -20583.5003405615 1261221.75482498 21105.3450309746
 -21507.9441409313 1261199.52588466 21508.0256207158
 -21507.9402825569 1261199.52615733 -21508.0134897240
 -20583.4956349369 1261221.75514087 -21105.3307434922
 -18832.9603549654 1261255.86949491 -20697.3956782076
 -16373.5332379319 1261295.53493565 -20369.3858439066
 -13330.4878500197 1261335.20768811 -20130.1480133301
 -9836.94881368882 1261369.87263921 -19967.7178248991
 -6026.68432427700 1261395.40720650 -19867.9811090154
 -2029.41560041176 1261408.91598890 -19820.6724152805
 2029.57971798467 1261408.91581028 -19820.6669780112
 6026.84545925854 1261395.40671284 -19867.9635720617
 9837.10505798418 1261369.87182759 -19967.6921222211
 13330.6364401618 1261335.20660173 -20130.1176851579
 16373.6709614857 1261295.53376671 -20369.3475192001
 18833.0871804201 1261255.86831065 -20697.3524429363
 20583.6141374630 1261221.75394633 -21105.2865542051
 21508.0524971708 1261199.52500338 -21507.9689412071
 -64742.0632520182 1258239.38613083 -64742.1296678378
 -61964.6284094127 1258437.33206487 -63602.6493984317
 -56691.9283135208 1258742.08755816 -62480.5025009646
 -49278.8658091645 1259097.33723812 -61602.9192765317
 -40109.8245004896 1259453.12524957 -60979.1619864794
 -29590.7840076665 1259764.14576531 -60564.9524475238
 -18125.6687066526 1259993.25617841 -60314.8857068148
 -6103.11266531354 1260114.45596182 -60197.5149886239
 6103.26420359634 1260114.45540499 -60197.5112808846
 18125.8169816089 1259993.25482693 -60314.8693801885
 29590.9262843936 1259764.14359159 -60564.9281475940
 40109.9582939802 1259453.12250271 -60979.1307152776
 49278.9884917027 1259097.33439680 -61602.8792107840
 56692.0423632969 1258742.08465179 -62480.4575695137
 61964.7365830790 1258437.32904067 -63602.6038470720
 64742.1659359374 1258239.38322606 -64742.0834370811
 -108495.145641725 1252200.87232208 -108495.205640423
 -103849.134128499 1252737.74166554 -106831.357130968
 -94989.1416815545 1253569.98990295 -105303.249219896
 -82524.7671236659 1254544.93068899 -104192.661030919
 -67127.8126039099 1255523.56473343 -103459.490106214
 -49495.2138907199 1256379.55988100 -103005.127222389
 -30305.6487801832 1257010.04456079 -102746.028849001
 -10202.1319318628 1257343.49056489 -102628.914819784
 10202.2702981828 1257343.48966356 -102628.912107572
 30305.7855507352 1257010.04234540 -102746.015610891
 49495.3436129664 1256379.55665946 -103005.104183091
 67127.9329434674 1255523.56084657 -103459.459194634
 82524.8770541644 1254544.92669743 -104192.622022292
 94989.2443791018 1253569.98605737 -105303.202360506
 103849.231376402 1252737.73784821 -106831.307360916
 108495.238091313 1252200.86864268 -108495.155656772
 -152662.180902197 1242955.32124513 -152662.237732666
 -146105.628982537 1243964.29592046 -150848.952842516
 -133540.431077534 1245546.51856905 -149433.109674841
 -115885.701617936 1247412.61977344 -148599.095251081
 -94153.9709771561 1249290.11535876 -148184.575226549
 -69354.6585444214 1250932.40863635 -148011.726834074
 -42436.9610714714 1252141.26979964 -147955.316628052
 -14281.2322772194 1252780.24125834 -147943.044568834
 14281.3615365993 1252780.24025987 -147943.040546176
 42437.0881541830 1252141.26686128 -147955.305045051
 69354.7793120536 1250932.40446120 -148011.705531873
 94154.0812565130 1249290.11064087 -148184.544931712
 115885.801385740 1247412.61531121 -148599.054904791
 133540.523109971 1245546.51436399 -149433.062480139
 146105.716305475 1243964.29193770 -150848.901108835
 152662.264390411 1242955.31781294 -152662.182188905
 -196461.816331034 1230591.28869562 -196461.868639479
 -187882.675195749 1232152.74010351 -195061.929488196
 -171420.332710766 1234644.46630291 -194467.329595182
 -148441.687432199 1237603.96675737 -194553.123381912
 -120373.120373069 1240583.70367473 -194966.194473023
 -88538.0134210160 1243186.47951705 -195442.646943835
 -54123.2979741833 1245099.36303052 -195825.625790748
 -18205.5873487371 1246109.43213838 -196033.850760556
 18205.7093110431 1246109.43105080 -196033.846347224
 54123.4173596845 1245099.35966327 -195825.614203993
 88538.1273109829 1243186.47481413 -195442.625264868
 120373.225714811 1240583.69844200 -194966.162730704
 148441.782506630 1237603.96193245 -194553.081533822
 171420.418900581 1234644.46181143 -194467.282135777
 187882.755790292 1232152.73624657 -195061.876223110
 196461.891732521 1230591.28581087 -196461.811307391
 -238149.834121854 1215779.05938565 -238149.881767846
 -227260.339793135 1217904.44089376 -237930.539711344
 -206617.882251234 1221374.33807739 -238962.775216099
 -178302.342415315 1225508.67213340 -240595.511458533
 -144191.397783742 1229657.72397134 -242281.145782637
 -105854.807833161 1233268.32181883 -243707.687559736
 -64633.5100250636 1235914.86769522 -244716.938749025
 -21729.0348361621 1237310.30808027 -245235.563249608
 21729.1530131354 1237310.30653420 -245235.560579067
 64633.6247909978 1235914.86389557 -244716.927627245
 105854.918701513 1233268.31634703 -243707.667093632
 144191.500607164 1229657.71850974 -242281.112307648
 178302.435426962 1225508.66694572 -240595.468952946
 206617.966333179 1221374.33326165 -238962.727129065
 227260.415551833 1217904.43735586 -237930.485459637
 238149.902421815 1215779.05751739 -238149.823005518
 -274611.330026343 1200302.72816713 -274611.378305163
 -260749.218452131 1202962.47277925 -276478.869139024
 -235675.897992231 1207370.49737553 -279754.864286002
 -202432.938562925 1212575.60705178 -283250.301829904
 -163182.485478248 1217750.77434800 -286363.333768367
 -119554.313011366 1222227.30064220 -288819.360023199
 -72913.2837448813 1225497.73017298 -290496.811193100
 -24499.6944625897 1227219.42386527 -291344.609660077
 24499.8139359302 1227219.42225016 -291344.606416587
 72913.4001963828 1225497.72630181 -290496.798295366
 119554.423915776 1222227.29535038 -288819.336509215
 163182.587985303 1217750.76849424 -286363.300248241
 202433.030806041 1212575.60153613 -283250.259517837
 235675.981346332 1207370.49248639 -279754.815165995
 260749.292620891 1202962.46940396 -276478.813875835
 274611.396783924 1200302.72721087 -274611.315727302
 -300241.125719381 1187964.61820372 -300241.175127262
 -282395.850209239 1191206.79721341 -304677.503232705
 -253482.185056741 1196338.73942862 -309951.340245785
 -216809.508927804 1202242.29401479 -314891.305436481
 -174335.975763567 1208040.29924981 -319053.340151681
 -127542.240818458 1213027.45544720 -322252.695965839
 -77724.2854710723 1216661.81891980 -324410.827115448
 -26107.3423482681 1218573.14260858 -325495.520257197
 26107.4646623870 1218573.14087938 -325495.516920313
 77724.4039547798 1216661.81581468 -324410.810373750
 127542.351354796 1213027.45057161 -322252.670570135
 174336.077349147 1208040.29380244 -319053.305269161
 216809.601196449 1202242.28811246 -314891.264442372
 253482.268103663 1196338.73524936 -309951.288459859
 282395.923997703 1191206.79435351 -304677.446021954
 300241.193350149 1187964.61749974 -300241.110281947
 304677.592263774 1191206.77121266 282395.863830232
 286952.324920281 1194515.06095225 286952.196890066
 257817.215379427 1199862.05612682 292251.194420260
 220660.368667621 1206034.65229172 297218.522454456
 177514.583444296 1212099.00209984 301419.993849335
 129910.506096783 1217314.41343347 304660.975794023
 79184.6243177450 1221114.52396775 306852.644677585
 26600.8332731081 1223112.84865310 307955.818337338
 -26600.5940764992 1223112.85252043 307955.823638808
 -79184.3878222285 1221114.53421267 306852.664936688
 -129910.276509846 1217314.42957489 304661.009196849
 -177514.362558432 1212099.02191262 301420.044261995
 -220660.156465415 1206034.67675578 297218.580728370
 -257817.012693606 1199862.08352503 292251.260739233
 -286952.132869713 1194515.09028017 286952.266855357
 -304677.408788785 1191206.80064565 282395.937627048
 276478.956285350 1202962.44937319 260749.234032167
 263253.221054778 1205381.67354372 263253.098002990
 238405.012967373 1209768.10441793 266783.834300396
 205009.986106800 1215073.61788298 270400.517085698
 165371.139619401 1220388.30591392 273594.955890072
 121207.518773450 1224997.78972609 276113.352588982
 73939.3699800939 1228368.89457970 277834.949772242
 24847.3804199472 1230144.34258698 278705.821622862
 -24847.1460048858 1230144.34604960 278705.827238276
 -73939.1403143797 1228368.90439106 277834.967514238
 -121207.294933383 1224997.80458014 276113.384948517
 -165370.924177740 1220388.32495856 273595.001161176
 -205009.779439449 1215073.64036349 270400.572756335
 -238404.815524046 1209768.12981023 266783.895595941
 -263253.034892403 1205381.69994015 263253.163301593
 -276478.778393010 1202962.47512551 260749.303847930
 237930.622832860 1217904.42095572 227260.359618309
 227838.033156018 1219725.02868619 227837.915990790
 207705.199824299 1223049.21193736 229256.637994002
 179533.576045265 1227158.34301708 231083.377063180
 145324.260284449 1231338.28132729 232886.940874091
 106744.478297503 1234995.80722947 234393.693169362
 65196.3179777850 1237683.15246382 235455.484430298
 21921.2904110462 1239101.54836955 236000.510113547
 -21921.0662668207 1239101.55168104 236000.513546725
 -65196.0962600447 1237683.16108522 235455.500503802
 -106744.264007903 1234995.82004908 234393.723213001
 -145324.054096013 1231338.29789360 232886.981947337
 -179533.376829816 1227158.36243058 231083.428743241
 -207705.009777268 1223049.23364411 229256.694373243
 -227837.854561632 1219725.05100490 227837.975102477
 -237930.452512123 1217904.44276049 227260.421082475
 195062.007373734 1232152.72431053 187882.697905978
 187246.899612195 1233461.25576478 187246.789109287
 171378.967210433 1235793.20092721 187066.418843466
 148702.777501115 1238679.44581332 187377.014070631
 120728.176006032 1241634.81621901 187928.501271061
 88860.1854943341 1244235.62517696 188496.703932399
 54340.6857134732 1246153.65723741 188938.041031906
 18281.8502968562 1247167.99575673 189175.038598685
 -18281.6378269780 1247167.99828180 189175.042484722
 -54340.4765591027 1246153.66367498 188938.058727489
 -88859.9814209635 1244235.63543964 188496.732393250
 -120727.977992348 1241634.82955922 187928.540339903
 -148702.587463459 1238679.46161802 187377.060405788
 -171378.786332882 1235793.21844170 187066.468848687
 -187246.729595528 1233461.27367002 187246.841177829
 -195061.846938892 1232152.74125159 187882.753370136
 150849.024670685 1243964.28426156 146105.654087988
 144936.879887049 1244803.62442694 144936.773736394
 132923.267346331 1246264.40866906 143895.307782009
 115609.111755545 1248060.69839174 143277.553468715
 94058.5490406151 1249901.29889601 143000.570940804
 69340.6765207510 1251525.20473173 142919.429819077
 42447.5116516703 1252725.51340728 142921.054194301
 14287.7374203745 1253361.17675339 142937.231279001
 -14287.5367363774 1253361.17823672 142937.238332191
 -42447.3134012700 1252725.51798581 142921.072942881
 -69340.4823723184 1251525.21232140 142919.457552817
 -94058.3604945408 1249901.30893567 143000.607204766
 -115608.930771853 1248060.71025601 143277.596155188
 -132923.096976493 1246264.42152511 143895.353815935
 -144936.720336173 1244803.63727158 144936.822969829
 -150848.874430422 1243964.29662401 146105.703950143
 106831.421761913 1252737.73368207 103849.163946529
 102667.516665767 1253183.23215091 102667.417404148
 94242.1301042042 1253945.54260155 101431.888585789
 82072.4683890664 1254875.97943718 100497.846161265
 66860.6419148244 1255827.62838551 99880.1945598674
 49343.0320209658 1256667.69236003 99503.8043918527
 30227.9159866985 1257289.29308719 99294.1967205603
 10178.3920349393 1257618.75212364 99201.3385066325
 -10178.2022498392 1257618.75310820 99201.3454974090
 -30227.7288382352 1257289.29603036 99294.2164262842
 -49342.8477886494 1256667.69720566 99503.8345536071
 -66860.4615871003 1255827.63508625 99880.2310219114
 -82072.2970247046 1254875.98734171 100497.887406676
 -94241.9696852708 1253945.55101247 101431.933654208
 -102667.368906263 1253183.24053162 102667.462866675
 -106831.284446827 1252737.74146096 103849.211367661
 63602.7075198301 1258437.32728242 61964.6658781248
 61122.2382610144 1258601.44055504 61122.1460822579
 56124.8665395612 1258879.34183750 60184.9895709560
 48907.7676086137 1259216.61199622 59422.0940330102
 39871.1877453005 1259560.82524392 58874.8402764593
 29443.3647272838 1259864.58529695 58512.7841334023
 18045.3691319594 1260089.43246872 58295.9497093257
 6077.69479479196 1260208.65240194 58194.8877154833
 -6077.51578421313 1260208.65285221 58194.8966600330
 -18045.1922768660 1260089.43404870 58295.9703022639
 -29443.1911792345 1259864.58797118 58512.8138815841
 -39871.0195074887 1259560.82891756 58874.8756168150
 -48907.6074408738 1259216.61626396 59422.1354219890
 -56124.7184364561 1258879.34631138 60185.0341033704
 -61122.1033531801 1258601.44483062 61122.1929492222
 -63602.5820740346 1258437.33137948 61964.7114328987
 21105.3812167479 1261221.75357190 20583.5400182628
 20281.1295418404 1261240.17772024 20281.0455270603
 18624.6569283766 1261271.22267549 19936.2966454114
 16233.6047609034 1261308.78784927 19647.9690970391
 13238.1782243032 1261347.07539137 19435.4562046484
 9778.68088811241 1261380.85150149 19291.3396223833
 5994.47904498139 1261405.85475209 19203.3001612746
 2019.20381599800 1261419.11408688 19161.7418615907
 -2019.03607515940 1261419.11424766 19161.7489528741
 -5994.31464253386 1261405.85524177 19203.3193145926
 -9778.51928839322 1261380.85236361 19291.3651648942
 -13238.0225525938 1261347.07651010 19435.4896332875
 -16233.4589802650 1261308.78907714 19648.0107199423
 -18624.5210775703 1261271.22397339 19936.3414463034
 -20281.0052164517 1261240.17894999 20281.0933770290
 -21105.2655931993 1261221.75470061 20583.5894125524
 -21105.2587633145 1261221.75503766 -20583.5757635889
 -20281.0017530465 1261240.17924243 -20281.0786538995
 -18624.5200582148 1261271.22423828 -19936.3256400690
 -16233.4587356759 1261308.78934462 -19647.9937509458
 -13238.0237422820 1261347.07674412 -19435.4736350557
 -9778.52107028805 1261380.85255841 -19291.3515245094
 -5994.31744028615 1261405.85541810 -19203.3068590117
 -2019.04032532531 1261419.11438351 -19161.7395618834
 2019.19657276374 1261419.11423982 -19161.7325570797
 5994.47038578462 1261405.85494256 -19203.2903530335
 9778.66939520695 1261380.85178694 -19291.3267833896
 13238.1641855516 1261347.07577354 -19435.4409644265
 16233.5896608924 1261308.78830124 -19647.9525583681
 18624.6412867268 1261271.22318397 -19936.2790886589
 20281.1169131146 1261240.17820161 -20281.0282207715
 21105.3686102844 1261221.75403721 -20583.5244331047
 -63602.5857793867 1258437.33177347 -61964.6996281396
 -61122.1101670394 1258601.44516364 -61122.1792779481
 -56124.7294445195 1258879.34654213 -60185.0190112830
 -48907.6216673735 1259216.61647300 -59422.1192829548
 -39871.0336248360 1259560.82924748 -58874.8589980137
 -29443.2067821947 1259864.58837518 -58512.7973317162
 -18045.2071921393 1260089.43450686 -58295.9557819825
 -6077.53253316389 1260208.65333586 -58194.8844374391
 6077.67587837247 1260208.65288911 -58194.8791414827
 18045.3473386984 1260089.43323035 -58295.9399923456
 29443.3409795122 1259864.58636744 -58512.7730338387
 39871.1605965597 1259560.82682013 -58874.8249410191
 48907.7381759257 1259216.61399218 -59422.0759612414
 56124.8381150069 1258879.34402760 -60184.9702680618
 61122.2146045573 1258601.44264805 -61122.1266403960
 63602.6859554497 1258437.32926849 -61964.6476774004
 -106831.298417622 1252737.74124500 -103849.199600802
 -102667.387201904 1253183.24016747 -102667.449016035
 -94241.9936855398 1253945.55041789 -101431.918705632
 -82072.3231973269 1254875.98698386 -100497.870500934
 -66860.4889232413 1255827.63512108 -99880.2122849768
 -49342.8734779334 1256667.69770533 -99503.8155041717
 -30227.7554533053 1257289.29662611 -99294.2007804084
 -10178.2304175649 1257618.75383568 -99201.3333847076
 10178.3604640741 1257618.75323295 -99201.3276827425
 30227.8830457202 1257289.29470406 -99294.1862754283
 49342.9962731546 1256667.69466587 -99503.7929975344
 66860.6020002653 1255827.63186531 -99880.1775262271
 82072.4273584391 1254875.98363530 -100497.827249127
 94242.0906203027 1253945.54725649 -101431.867724604
 102667.480163367 1253183.23699681 -102667.394756396
 106831.388490321 1252737.73827104 -103849.142816644
 -150848.899566416 1243964.29525514 -146105.689652849
 -144936.748638147 1244803.63599300 -144936.805649076
 -132923.129576936 1246264.42009113 -143895.336120855
 -115608.966676101 1248060.70902241 -143277.577930126
 -94058.3955883972 1249901.30861842 -143000.586894737
 -69340.5183324474 1251525.21237567 -142919.439630768
 -42447.3495853005 1252725.51853736 -142921.057361903
 -14287.5759403066 1253361.17931543 -142937.224954688
 14287.6960556576 1253361.17848672 -142937.220214891
 42447.4679517847 1252725.51612732 -142921.043331580
 69340.6301660647 1251525.20887456 -142919.416030931
 94058.4994318447 1249901.30465892 -143000.553200067
 115609.060772074 1248060.70534087 -143277.534074288
 132923.217107574 1246264.41665877 -143895.284991932
 144936.832419006 1244803.63299716 -144936.747598327
 150848.980292450 1243964.29259899 -146105.628920885
 -195061.880320015 1232152.73914592 -187882.732522656
 -187246.765496585 1233461.27142920 -187246.820037836
 -171378.825833503 1235793.21627082 -187066.447001864
 -148702.629002230 1238679.45981131 -187377.039384082
 -120728.020977767 1241634.82850765 -187928.519673104
 -88860.0236785187 1244235.63526508 -188496.713624690
 -54340.5208743934 1246153.66399219 -188938.043889772
 -18281.6853906377 1247167.99942743 -189175.030335467
 18281.7997392202 1247167.99827987 -189175.026850362
 54340.6323894453 1246153.66123149 -188938.030025245
 88860.1308245266 1244235.63107146 -188496.690795877
 120728.118143788 1241634.82441518 -187928.484290972
 148702.718159804 1238679.45585450 -187376.994785496
 171378.908571420 1235793.21282902 -187066.393939560
 187246.842791224 1233461.26869962 -187246.760723887
 195061.953569394 1232152.73724228 -187882.668958573
 -237930.492455420 1217904.43976787 -227260.395301465
 -227837.897065947 1219725.04794568 -227837.948975664
 -207705.055648750 1223049.23072893 -229256.668366012
 -179533.422305197 1227158.36037003 -231083.404354964
 -145324.099711987 1231338.29681676 -232886.959176047
 -106744.311290847 1234995.81953624 -234393.704382210
 -65196.1472321355 1237683.16111667 -235455.486224636
 -21921.1206568051 1239101.55292631 -236000.501956496
 21921.2323025169 1239101.55152958 -236000.498919562
 65196.2568760497 1237683.15768840 -235455.473885800
 106744.415653988 1234995.81515670 -234393.679929903
 145324.197208501 1231338.29176923 -232886.925024788
 179533.510241294 1227158.35633201 -231083.357479297
 207705.135651259 1223049.22724091 -229256.614492250
 227837.969977455 1219725.04573003 -227837.887925558
 237930.559443000 1217904.43892793 -227260.329670052
 -276478.823584678 1202962.47148355 -260749.272732229
 -263253.081804659 1205381.69629580 -263253.133076068
 -238404.864511705 1209768.12650256 -266783.866818438
 -205009.828644758 1215073.63816669 -270400.545321860
 -165370.973256924 1220388.32360225 -273594.977545805
 -121207.346192999 1224997.80385495 -276113.365664089
 -73939.1940927976 1228368.90430029 -277834.953603702
 -24847.2045028219 1230144.34766912 -278705.814874849
 24847.3179950404 1230144.34603245 -278705.811980685
 73939.3048142699 1228368.90088230 -277834.939249455
 121207.450957798 1224997.79893932 -276113.341483339
 165371.070293728 1220388.31888719 -273594.939924970
 205009.916683163 1215073.63355468 -270400.499298263
 238404.943439853 1209768.12345134 -266783.810122406
 263253.152527664 1205381.69429680 -263253.071506078
 276478.888790311 1202962.47095572 -260749.206028180
 -304677.457127434 1191206.79589921 -282395.905495923
 -286952.183140356 1194515.08625643 -286952.233334640
 -257817.063964675 1199862.08024537 -292251.228974036
 -220660.208181586 1206034.67438152 -297218.551967523
 -177514.414267787 1212099.02047316 -301420.019597450
 -129910.329458278 1217314.42858805 -304660.990562210
 -79184.4436470454 1221114.53435065 -306852.649981799
 -26600.6535745507 1223112.85395273 -307955.812810811
 26600.7701572334 1223112.85257480 -307955.808213342
 79184.5560834227 1221114.53064054 -306852.635731485
 129910.434820569 1217314.42365120 -304660.965360559
 177514.510924644 1212099.01590054 -301419.981061442
 220660.296211168 1206034.66980173 -297218.505196401
 257817.142559255 1199862.07718472 -292251.172205527
 286952.253359088 1194515.08431675 -286952.171190332
 304677.522676143 1191206.79548989 -282395.836501846
 309951.425926139 1196338.71430988 253482.198839867
 292251.316308420 1199862.05579647 257817.078749279
 262903.545504157 1205534.30070148 262903.416699937
 225247.937686067 1212084.77259348 267700.021543042
 181350.271892829 1218522.75783538 271778.951430406
 132794.254086356 1224060.22709570 274939.406857246
 80972.6930261136 1228095.09579239 277083.542625183
 27206.5211318758 1230216.86346662 278164.888095528
 -27206.2926075003 1230216.86675343 278164.895910469
 -80972.4679279419 1228095.10578809 277083.564102860
 -132794.035226915 1224060.24239504 274939.444450781
 -181350.062039886 1218522.77677445 271779.006545699
 -225247.736539513 1212084.79551399 267700.087012667
 -262903.353341575 1205534.32680751 262903.489154223
 -292251.134078953 1199862.08331609 257817.157243043
 -309951.251260114 1196338.74198802 253482.281786643
 279754.948032997 1207370.47475755 235675.914454023
 266783.951311961 1209768.10464513 238404.880874234
 242025.623590233 1214247.37453138 242025.498426019
 208412.670777701 1219743.70071238 245639.765002992
 168282.489895517 1225286.13835397 248805.774995557
 123423.746643489 1230107.84399408 251298.033871480
 75322.3313313210 1233639.15231866 253002.804704362
 25317.0994129916 1235500.13636391 253865.886721774
 -25316.8765596660 1235500.13950214 253865.893673059
 -75322.1110952970 1233639.16139573 253002.826011759
 -123423.534601417 1230107.85767860 251298.071028820
 -168282.286046218 1225286.15610969 248805.825430078
 -208412.474316907 1219743.72175942 245639.827179018
 -242025.436026912 1214247.39778812 242025.569309782
 -266783.774024756 1209768.12900678 238404.955643742
 -279754.778826285 1207370.49850138 235675.993667885
 238962.855307076 1221374.31899589 206617.902418361
 229256.749067550 1223049.21247675 207705.074049560
 209471.272664967 1226292.40102248 209471.153244539
 181386.318855370 1230418.45997143 211468.313495420