# OOMMF OVF 2.0
#
# Segment count: 1
#
# Begin: Segment
# Begin: Header
#
# Title: Oxs_MinDriver::Magnetization
# Desc: Oxs vector field output
# Desc:  MIF source file: C:/Users/grl31/Documents/GitHub/phd-work/Skyrmions/stdprob3/drive-32/stdprob3.mif
# Desc:  Iteration: 525, State id: 1118
# Desc:  Stage: 0, Stage iteration: 525
# Desc:  Stage simulation time: -1 s
# Desc:  Total simulation time: -2 s
# meshunit: m
# meshtype: rectangular
# xbase: 3.1249999999999999e-09
# ybase: 3.1249999999999999e-09
# zbase: 3.1249999999999999e-09
# xnodes: 16
# ynodes: 16
# znodes: 16
# xstepsize: 6.2499999999999997e-09
# ystepsize: 6.2499999999999997e-09
# zstepsize: 6.2499999999999997e-09
# xmin: 0
# ymin: 0
# zmin: 0
# xmax: 9.9999999999999995e-08
# ymax: 9.9999999999999995e-08
# zmax: 9.9999999999999995e-08
# valuedim: 3
# valuelabels: Magnetization_x Magnetization_y Magnetization_z
# valueunits: A/m A/m A/m
#
# End: Header
#
# Begin: Data Text
 500438.434932940 -1157821.57951919 -23664.1872989024
 605380.256689978 -1105638.74713104 -51255.6003909425
 739942.356224200 -1018478.72803054 -82072.0472122962
 874090.403961152 -903188.078789179 -108474.379256563
 993499.179357896 -767162.875247894 -126372.205708084
 1092298.54549416 -616989.342698023 -133257.155257620
 1168695.65563265 -457535.217903072 -127911.765693050
 1222237.27697989 -292410.886540427 -110369.122096666
 1252699.44260011 -124754.771535306 -82035.2631952018
 1260010.54577726 42711.6766915500 -45810.1312292034
 1244248.00481139 208234.795423327 -5882.46690010535
 1205361.49361686 370917.014471072 32766.8887836502
 1143417.46594875 529102.785224167 64777.8677506012
 1060705.02980370 677694.977564388 84757.2300873512
 966832.700616819 805582.050394428 88439.3578631865
 887529.573956854 893234.534409146 77283.5869366592
 447810.864702462 -1179384.07132168 8250.61731575666
 537696.246978195 -1141109.53569553 -17355.2427022717
 665047.343505226 -1070859.70218329 -50209.1630631878
 802338.655511186 -969992.036004976 -83171.8875484880
 933662.800355003 -841087.242976590 -111334.881570176
 1049443.24170402 -687882.857175222 -130520.068055344
 1143517.18178696 -514816.721715827 -137410.439627917
 1211393.10173130 -327360.760625868 -130042.748353092
 1249883.10742483 -132463.052776407 -108605.655203423
 1257717.37181480 62453.8243038175 -76131.2247638621
 1235609.20129766 251730.324290832 -38094.3095480859
 1185228.80232783 432181.818880066 -996.233408706036
 1108807.65753144 601051.717073397 28841.6872202812
 1011224.21838982 752903.916383013 45942.3960627001
 905177.441779536 877503.318628098 46809.7811262098
 819962.709040068 958143.759006801 34221.6857992895
 369444.858926458 -1205878.64763931 30275.6387108619
 442739.328618238 -1181306.69328077 6768.62051584415
 556572.786171903 -1131813.32135658 -27834.6943865630
 692021.118985990 -1052590.95596924 -68618.3736916493
 835362.105978830 -938831.028811052 -110976.944250367
 974498.200624431 -787193.697657246 -149093.159693571
 1097027.03515639 -597582.621626041 -176000.356208387
 1189998.87029642 -375869.376732138 -184863.006702786
 1242385.82777398 -135842.386787446 -171970.148040868
 1249443.48474487 104035.025464478 -140061.139593202
 1214032.77621337 328787.388927080 -97840.1864324435
 1143050.01228346 530933.899017277 -55635.3773425108
 1044402.68941286 707311.236814418 -21983.3469289366
 928215.311302127 854376.371239163 -2604.42919843266
 811349.503643998 966054.558718541 58.6064644514433
 724051.289931908 1033049.79075205 -10358.1028201347
 280136.070075828 -1229538.73771056 36162.2127442264
 337436.094061445 -1215518.90679770 14145.6905396798
 433520.760499927 -1184526.11410949 -22518.1288564111
 559359.466341978 -1128484.60954657 -72034.0499284197
 707689.097140918 -1036020.34708890 -131861.340523371
 868545.407192811 -893735.878238295 -195996.139025366
 1025100.03644418 -690441.562607544 -253001.570795803
 1152127.61882260 -426646.113364483 -286573.681303941
 1223016.29357688 -125235.797054497 -283013.377246656
 1225604.74751597 173628.764392413 -243506.644592788
 1168761.45414623 437550.544540567 -184649.980214448
 1070908.17739110 654973.201434431 -125360.328328219
 949351.749942435 827136.822967124 -78264.6912217910
 819659.230865835 957746.722431096 -49288.8612961890
 699922.108034565 1048855.15406433 -39513.7874178397
 616302.551012906 1099871.52510920 -44757.3992530184
 187595.342567037 -1247218.80234184 28331.5628073280
 229319.739240718 -1240528.57795391 7122.87815244642
 304539.946985268 -1223826.06810783 -32474.7075259150
 412526.180930668 -1188638.34790976 -92252.1481813434
 554228.913701177 -1119926.91317636 -173618.695075814
 726921.114391560 -994231.516801962 -273201.053014729
 915173.737526677 -782802.679457203 -375801.045894007
 1081194.08809813 -470366.467680314 -448691.609975656
 1173233.68303418 -89806.3242151784 -454980.197419584
 1166265.85021252 278975.613333740 -391849.466902898
 1082572.63439284 576350.238810961 -295645.606098341
 959459.752287308 793592.514447762 -202971.268095291
 823861.394470920 946244.769790838 -131994.959232800
 692730.619200956 1050744.32484334 -87235.7951182888
 580568.635366436 1118038.48786674 -66928.5454523724
 506259.838525353 1153670.09924920 -65541.6578488154
 94415.7544954081 -1257978.99704920 11132.7986192856
 120402.075301554 -1255769.86882877 -9736.92578888148
 171705.363127205 -1248702.86209354 -52989.2573235340
 253218.233570000 -1229621.47954302 -124342.165628052
 372867.467675346 -1182854.52619077 -231029.115780559
 537605.884157228 -1077413.83004058 -376442.270575131
 741136.243481328 -863114.504544581 -545252.099090047
 940201.028704689 -495425.425699215 -679797.840620541
 1052730.96852657 -16889.1812243580 -694997.621853224
 1035903.84029713 425192.344011081 -581088.749823108
 932849.674368617 738334.988885419 -419764.648507812
 800887.709907274 934412.670872313 -277491.022470470
 670272.196431167 1054276.00815161 -175461.426661813
 553563.535871841 1128056.32229624 -112275.448783382
 459009.388613117 1172322.88819547 -80739.4444927451
 398365.333670463 1194805.95525148 -72754.5266233021
 529.088684553916 -1261518.02584833 -11019.1398867419
 10024.9670579460 -1261131.52246832 -31562.8577787948
 34003.1938181822 -1258677.52956008 -78256.5671982085
 79949.3969487862 -1248736.51896852 -160669.322027785
 158876.401723405 -1216773.38649736 -292865.576341984
 284609.576102232 -1127649.89244592 -488827.720343848
 464296.601949851 -910585.320059954 -739467.694512808
 666127.511873052 -482268.925171562 -956681.897319395
 793794.289799026 103606.098665317 -975041.451796161
 787012.656527242 604213.768592382 -779157.385403154
 699498.005128510 905270.772561852 -531730.006756677
 593328.540080191 1061997.11080838 -334174.821133971
 493515.201706589 1143328.47676523 -201970.717731955
 407079.145941578 1187779.23997385 -122541.735525429
 338073.695934331 1212680.47400289 -81619.0848293534
 293938.212462973 1224952.64681989 -68123.2061926243
 -94978.6921705971 -1257525.17763431 -34042.7168173328
 -102982.230917791 -1256211.42171808 -53637.2536507762
 -109499.317083655 -1252658.05149709 -102015.373825121
 -107072.768836154 -1242338.81351520 -191517.950924595
 -86561.8235980694 -1211404.18084418 -341403.562148353
 -34914.7788574497 -1122393.03057382 -574947.192406057
 63947.6180545627 -890641.555793981 -891188.954238650
 210004.671566502 -404565.413413767 -1176339.36222017
 344319.481084845 261075.340870014 -1185256.59342356
 397255.384289342 779076.226512296 -909273.239381564
 385100.037965213 1044725.58198405 -593123.806659477
 346960.507853326 1158915.00901632 -357888.025485361
 301936.160850235 1207240.78635223 -207252.670568133
 257641.465384243 1229298.47411640 -118302.864583682
 219124.383643480 1240326.28974242 -71586.5237710316
 192944.584222788 1245545.37622823 -54208.2474769765
 -192944.535652691 -1245545.38546280 -54208.2081703903
 -219124.326725373 -1240326.30236160 -71586.4793525931
 -257641.400506701 -1229298.49229441 -118302.816985065
 -301936.083614173 -1207240.81587434 -207252.611124097
 -346960.417755633 -1158915.06000372 -357887.947724390
 -385099.933267116 -1044725.68300592 -593123.696697775
 -397255.269942874 -779076.421411098 -909273.122347101
 -344319.374363653 -261075.644822511 -1185256.55747491
 -210004.596876467 404565.130303717 -1176339.47292099
 -63947.5523306012 890641.400330405 -891189.114322753
 34914.8386837008 1122392.96564217 -574947.315530414
 86561.8778851228 1211404.15467523 -341403.641239446
 107072.818819096 1242338.80090140 -191518.004803631
 109499.356667586 1252658.04427759 -102015.419986331
 102982.266315674 1256211.41720771 -53637.2913227036
 94978.7243339566 1257525.17428461 -34042.7508187194
 -293938.148694712 -1224952.66405482 -68123.1714314507
 -338073.626567804 -1212680.49594983 -81619.0460683905
 -407079.059367151 -1187779.27423265 -122541.691056853
 -493515.108723938 -1143328.52720707 -201970.659390555
 -593328.431958309 -1061997.19272004 -334174.752792010
 -699497.890653505 -905270.907585266 -531729.927472584
 -787012.548410612 -604213.987207002 -779157.325080503
 -793794.232123028 -103606.383924084 -975041.468439851
 -666127.510660588 482268.686171741 -956682.018644787
 -464296.617532774 910585.195991005 -739467.837507893
 -284609.575817722 1127649.84589423 -488827.827897026
 -158876.387947540 1216773.37165652 -292865.645474699
 -79949.3745531538 1248736.51526487 -160669.361956972
 -34003.1701580217 1258677.52821642 -78256.5990901615
 -10024.9429012571 1261131.52204219 -31562.8824780880
 -529.065081911767 1261518.02565760 -11019.1628554813
 -398365.258985534 -1194805.98160005 -72754.5028509760
 -459009.307122951 -1172322.92199268 -80739.4170403207
 -553563.441059270 -1128056.37229722 -112275.413876779
 -670272.098312090 -1054276.07886307 -175461.376605740
 -800887.603969881 -934412.778076414 -277490.967229305
 -932849.575541636 -738335.144745474 -419764.593986228
 -1035903.76849809 -425192.555293418 -581088.723220009
 -1052730.95357432 16888.9415749831 -694997.650325481
 -940201.068615758 495425.232001290 -679797.926584958
 -741136.302165421 863114.393667423 -545252.194837980
 -537605.925554055 1077413.78159355 -376442.350115412
 -372867.488988041 1182854.50927711 -231029.167979961
 -253218.236108390 1229621.47576791 -124342.197790818
 -171705.353967807 1248702.86254028 -52989.2764760760
 -120402.063011216 1255769.86989884 -9736.93975779326
 -94415.7391497167 1257978.99829437 11132.7880631871
 -506259.751946764 -1153670.13760905 -65541.6513895320
 -580568.543577376 -1118038.53621582 -66928.5340029162
 -692730.517316714 -1050744.39404121 -87235.7706909231
 -823861.297189040 -946244.859440662 -131994.923747341
 -959459.661864977 -793592.634041124 -202971.227932848
 -1082572.56082015 -576350.395849317 -295645.569360674
 -1166265.81041965 -278975.799625861 -391849.452708887
 -1173233.69194513 89806.1272568528 -454980.213317977
 -1081194.13987339 470366.305973096 -448691.654733640
 -915173.807393522 782802.572566821 -375801.098405215
 -726921.174048195 994231.459132944 -273201.104151729
 -554228.954892691 1119926.88720100 -173618.731137472
 -412526.198952846 1188638.33965720 -92252.1739226226
 -304539.956045345 1223826.06553119 -32474.7196645921
 -229319.745895560 1240528.57677153 7122.86982515723
 -187595.340882511 1247218.80271918 28331.5573498227
 -616302.456581111 -1099871.57760455 -44757.4095399700
 -699922.012538926 -1048855.21749779 -39513.7951868115
 -819659.134756229 -957746.804881329 -49288.8574551030
 -949351.662461596 -827136.924987081 -78264.6741721551
 -1070908.10660723 -654973.322487628 -125360.300539642
 -1168761.40341809 -437550.688824957 -184649.959404116
 -1225604.72647704 -173628.922227646 -243506.637942693
 -1223016.30850121 125235.634254492 -283013.384792829
 -1152127.66551250 426645.974541124 -286573.700271903
 -1025100.10208223 690441.456055817 -253001.595626347
 -868545.469912916 893735.811414243 -195996.165800333
 -707689.147172974 1036020.31009241 -131861.362682854
 -559359.501606703 1128484.59097327 -72034.0670596392
 -433520.782815675 1184526.10586483 -22518.1329277309
 -337436.111865602 1215518.90189168 14145.6874001658
 -280136.083490725 1229538.73474019 36162.2098180521
 -724051.191711412 -1033049.85921130 -10358.1409410696
 -811349.410696969 -966054.636782614 58.5785519071558
 -928215.228165642 -854376.461510921 -2604.44551415122
 -1044402.62225256 -707311.336048128 -21983.3448033382
 -1143049.96329597 -530934.006106645 -55635.3618447046
 -1214032.74437679 -328787.511587942 -97840.1692747913
 -1249443.47387351 -104035.159868768 -140061.136740105
 -1242385.84220810 135842.253277723 -171970.149224355
 -1189998.90830065 375869.254275554 -184863.011044818
 -1097027.08888410 597582.521205446 -176000.362281342
 -974498.256849519 787193.625438369 -149093.173503688
 -835362.155605607 938830.983301800 -110976.955686675
 -692021.158477509 1052590.92925590 -68618.3851938425
 -556572.820461289 1131813.30441486 -27834.6976316275
 -442739.357569707 1181306.68243259 6768.62008239756
 -369444.886474070 1205878.63925164 30275.6366362156
 -819962.611759871 -958143.844485870 34221.6234086158
 -905177.357082439 -877503.408565152 46809.7329702205
 -1011224.14991549 -752904.010260973 45942.3647582792
 -1108807.60760245 -601051.809437949 28841.6818726605
 -1185228.76716941 -432181.915324782 -996.222483430293
 -1235609.18063631 -251730.427935347 -38094.2948182390
 -1257717.36690891 -62453.9385637740 -76131.2120785993
 -1249883.11965519 132462.940493626 -108605.651398705
 -1211393.13098148 327360.654168336 -130042.743866442
 -1143517.22087454 514816.635525512 -137410.437261912
 -1049443.28528533 687882.790044984 -130520.071438914
 -933662.845431823 841087.192433226 -111334.885385933
 -802338.694621516 969992.003122018 -83171.8937582310
 -665047.384452344 1070859.67648609 -50209.1687658988
 -537696.290302764 1141109.51518330 -17355.2491116023
 -447810.904236213 1179384.05636796 8250.60913827547
 -887529.487853957 -893234.626482664 77283.5115727917
 -966832.626008497 -805582.145732967 88439.3050670026
 -1060704.97012408 -677695.075546394 84757.1935189251
 -1143417.42553477 -529102.873962727 64777.8562996789
 -1205361.46735432 -370917.099083564 32766.8970734726
 -1244247.98860045 -208234.892664282 -5882.45355111463
 -1260010.54283315 -42711.7793591337 -45810.1164834757
 -1252699.45333185 124754.668841051 -82035.2554905964
 -1222237.30117435 292410.789163240 -110369.112155171
 -1168695.68782526 457535.137103500 -127911.760574575
 -1092298.58282030 616989.277963871 -133257.149021490
 -993499.220684803 767162.821824764 -126372.205122436
 -874090.446883990 903188.037446602 -108474.377612668
 -739942.397219306 1018478.69796189 -82072.0507489903
 -605380.300975258 1105638.72220146 -51255.6150951354
 -500438.475443733 1157821.56168216 -23664.2033119569
 512308.976367322 -1152860.02472134 1645.31210479321
 623779.782775913 -1096340.94222809 -22017.0823093680
 763337.749242326 -1002978.50845472 -53842.5768193760
 898507.478494747 -881565.307116442 -84121.0514476489
 1015417.37423346 -740961.917635380 -107015.997112040
 1109480.46914481 -588563.353349083 -119145.703236226
 1180249.98033640 -429441.605420177 -118908.882633020
 1228419.81515287 -266964.830159508 -106131.843085124
 1254620.05209015 -103688.717939999 -82015.8861697817
 1259248.75911157 58494.0664961703 -49197.9448724817
 1242401.05546326 218758.601808182 -11563.8418205173
 1203599.50808511 377107.600109006 26220.4690318776
 1142059.68858822 532680.053298203 59169.7510469275
 1058823.13149554 680906.467081178 82519.0294171770
 962264.074455329 810499.786132104 93206.1082300809
 878869.190316795 900221.788648199 93483.1988856419
 457747.161600624 -1175433.72578767 19300.8612877885
 552663.404892594 -1134063.99874329 -3382.09489187297
 684975.779884774 -1058767.55275643 -36998.3934835447
 824404.527993727 -952144.851130033 -72984.8450636191
 954695.696311376 -817971.062971653 -105018.562666391
 1066841.87987893 -661047.998396659 -128114.706693281
 1155688.19539779 -486561.032360181 -138537.315282723
 1217961.42354753 -300237.104468154 -134078.643972837
 1251633.37175075 -108648.852255832 -114711.640831691
 1256163.98310153 81711.5818274725 -83214.7575416496
 1232326.39977722 266294.765632606 -44812.6447304715
 1181266.14956991 442860.768588465 -5835.61860120709
 1104316.65579286 609324.725115626 27523.3359205573
 1005253.11960409 760596.239280665 50089.4922844316
 895927.215941272 886205.456632259 59192.4259503321
 807023.860712896 967935.327400228 57992.4230362755
 377586.545506756 -1203280.40573057 33077.1334322983
 454845.674503782 -1176663.73255405 11282.8983922640
 573442.234455739 -1123432.20619937 -24769.1892352711
 712102.893508078 -1039082.30621175 -69042.4571843661
 856109.433813765 -919364.430675004 -115737.253568820
 992933.632227415 -761992.083644417 -158114.823384356
 1110426.29940051 -568307.307451874 -188493.153232280
 1196829.60244083 -345438.554811747 -199550.841867036
 1242954.97562762 -107370.406766577 -187307.114740137
 1245474.29059633 128574.283356680 -154310.971877691
 1207420.19211952 348950.087924350 -109177.592566450
 1134949.86346973 547305.512680250 -62409.2470616580
 1035007.33609401 720961.597835920 -22882.7357719884
 916862.234919027 866545.238400449 3524.61398586004
 796952.324884841 977853.056811796 14826.3975202213
 706963.896593878 1044761.55114220 14992.7011141686
 287808.839616864 -1227785.94927281 35456.5300841739
 348557.449217232 -1212379.66186961 13881.3183469565
 449195.396290524 -1178611.67367608 -25445.0298646296
 578890.126721898 -1118058.88282392 -79874.8185687470
 729103.333719343 -1019158.12963464 -145857.692556512
 888492.065008432 -869127.254524188 -216215.394408570
 1039349.06165177 -658746.338845264 -278129.861792095
 1157443.82336312 -391351.272252432 -314193.265974802
 1219391.76267412 -91144.2424354191 -310364.120207737
 1215901.36159150 203494.096935376 -267812.364000139
 1155958.48855317 462583.280892499 -203288.248306591
 1056626.08837997 675612.899110628 -136520.880560938
 934066.423754883 844080.121636554 -81228.6599097682
 803153.642050690 971884.304091192 -43983.6065011178
 681624.870010572 1061264.32282689 -25593.0575901208
 596563.569672798 1111398.13970848 -21342.7578050110
 196102.334761063 -1245940.58874617 26932.4067816465
 241017.730130707 -1238319.83086933 4886.83510633152
 320651.452207766 -1219521.62672472 -38717.9424386857
 432846.990601877 -1180308.39916652 -105190.287112572
 577086.528830629 -1104727.71673820 -195185.145519753
 748297.215045460 -969166.570158087 -303836.910467067
 928562.137283179 -747239.249466794 -413467.401592133
 1080737.57358742 -429147.184809515 -489273.360939863
 1159446.47170856 -51024.1499176043 -494600.693779054
 1145497.38242806 311517.909241991 -427014.952889135
 1060064.83005647 603128.021320600 -322565.616416553
 937291.722860417 815400.829500162 -219442.804454264
 802525.085106223 963560.995377439 -138033.064449946
 672064.467930569 1064342.45528489 -83987.6166008698
 559944.707464334 1129139.86498630 -55267.7193336917
 485449.771719369 1163535.07944645 -45541.9471928182
 104691.073031914 -1257168.84465460 10756.6805379363
 133699.883259227 -1254402.54147650 -12167.0075496411
 189372.128604037 -1245797.03230245 -60641.4225866093
 275409.846233332 -1223114.97594072 -140316.082992014
 398033.454105313 -1169017.02180765 -257910.843230602
 560714.695089542 -1051256.35864396 -414739.110815741
 752217.797219056 -822417.146549224 -591056.556961935
 928987.967556282 -448499.586165432 -726208.584543062
 1021702.48122223 21523.1037001814 -739736.592842622
 998952.230746242 453052.853028466 -623207.015339869
 898432.915896748 760750.992995308 -453459.648931273
 770642.504313887 953079.888235960 -298828.191615025
 643845.056513140 1069066.16761982 -184690.290414032
 530187.251469542 1139303.80959840 -111524.610435143
 437531.668709906 1181079.56159190 -71878.6406714479
 377793.543570601 1202334.88885790 -56677.0181853311
 13108.7873977061 -1261464.33751933 -9236.65409267143
 25468.7859519038 -1260878.67955749 -32950.3763019668
 53850.8711430928 -1257491.74465492 -85813.9075022446
 104804.931990865 -1244585.75116499 -177684.172470190
 187592.535084602 -1205227.96276156 -322155.287830437
 311802.474588836 -1101632.29294883 -529844.259090849
 476914.543425874 -866149.763732320 -783509.116714215
 647890.481876444 -434467.259037210 -991476.452185102
 748072.061197980 129346.505039909 -1007574.86263201
 736568.156543842 614849.368365861 -819131.879433746
 655909.205790925 915418.739656176 -568630.878306806
 557477.021071466 1073227.76573384 -359097.430726231
 464103.445712560 1153397.57363591 -214082.833799133
 382658.308251876 1195681.47845858 -124369.819955915
 316985.764920614 1218744.63931427 -75703.1036310176
 274593.741181577 1230043.38961641 -56044.3385528820
 -79912.9116118921 -1258691.54156215 -29308.0309224148
 -85262.5684756548 -1257561.40141958 -53094.6983749008
 -87371.1235912655 -1253867.45592431 -108314.914278956
 -79336.8115134312 -1241792.14466460 -207863.827317645
 -53277.7775305023 -1204778.80047873 -370430.764458632
 524.111505885022 -1101870.06081328 -614354.559932142
 90557.9760952391 -852015.803471773 -925968.549422083
 208787.377152830 -370554.425298457 -1187706.47887107
 310144.500634821 257957.188332584 -1195331.71489444
 350628.698011681 762347.925406476 -942037.466175326
 341395.550589724 1037836.66676260 -630788.048459696
 310271.383440214 1160551.14874702 -385229.971158824
 272248.142014662 1211707.78157741 -221798.629737149
 233773.137338001 1233643.44007383 -122570.036880591
 199397.420416288 1243822.74231219 -68520.6929129515
 175527.265146737 1248449.46489845 -45973.2933759650
 -175527.222864131 -1248449.47224588 -45973.2552855944
 -199397.371230505 -1243822.75270386 -68520.6474101675
 -233773.078043450 -1233643.45648103 -122569.984835556
 -272248.068948766 -1211707.80936796 -221798.567599777
 -310271.299895295 -1160551.20003612 -385229.883932912
 -341395.456066646 -1037836.76587365 -630787.936549929
 -350628.593161772 -762348.118030406 -942037.349318937
 -310144.413718654 -257957.473518400 -1195331.67590174
 -208787.303149398 370554.158073183 -1187706.57525217
 -90557.9177791440 852015.647209378 -925968.698907713
 -524.052256763391 1101869.99050688 -614354.686080083
 53277.8319617114 1204778.77147483 -370430.850961421
 79336.8579288701 1241792.13196877 -207863.885447626
 87371.1629231216 1253867.44915753 -108314.960885340
 85262.6029665495 1257561.39743264 -53094.7374189176
 79912.9396341689 1258691.53894032 -29308.0671153605
 -274593.685556851 -1230043.40369411 -56044.3021178320
 -316985.700579503 -1218744.65848739 -75703.0643735169
 -382658.232665515 -1195681.50764879 -124369.771885999
 -464103.358002167 -1153397.62018236 -214082.773169021
 -557476.922408551 -1073227.84251823 -359097.354410347
 -655909.097605842 -915418.872715721 -568630.788889173
 -736568.058235500 -614849.576743174 -819131.811422850
 -748071.997153119 -129346.774931051 -1007574.87553493
 -647890.471290563 434467.031322453 -991476.558887652
 -476914.548728753 866149.632784608 -783509.258245805
 -311802.471132001 1101632.23932696 -529844.372613690
 -187592.523681646 1205227.94437170 -322155.363269435
 -104804.912214885 1244585.74578259 -177684.221835790
 -53850.8515145622 1257491.74292826 -85813.9451217434
 -25468.7659193192 1260878.67919535 -32950.4056439066
 -13108.7663435965 1261464.33757285 -9236.67666341147
 -377793.474567679 -1202334.91159085 -56676.9958877250
 -437531.595383279 -1181079.59059541 -71878.6104434853
 -530187.165511931 -1139303.85345931 -111524.571006279
 -643844.964679656 -1069066.23177830 -184690.239176202
 -770642.404124486 -953079.988877378 -298828.129006763
 -898432.820458467 -760751.141809021 -453459.588362919
 -998952.159629734 -453053.060301066 -623206.978653066
 -1021702.46214583 -21523.3362563412 -739736.612423982
 -928987.999040098 448499.393668793 -726208.663152096
 -752217.846473586 822417.030694876 -591056.655481195
 -560714.731807613 1051256.30589896 -414739.194868948
 -398033.470406180 1169017.00306406 -257910.903031433
 -275409.847270721 1223114.97154687 -140316.119256362
 -189372.124772706 1245797.03172075 -60641.4465014262
 -133699.870377548 1254402.54270214 -12167.0227413464
 -104691.060745298 1257168.84582944 10756.6628119666
 -485449.694868255 -1163535.11179088 -45541.9400229229
 -559944.621404266 -1129139.90817385 -55267.7089133358
 -672064.375146769 -1064342.51565415 -83987.5940155868
 -802524.991872920 -963561.078542792 -138033.025960362
 -937291.634392415 -815400.943275280 -219442.759558687
 -1060064.75736227 -603128.170597243 -322565.576200318
 -1145497.34018031 -311518.090851338 -427014.933733147
 -1159446.47375367 51023.9598731222 -494600.708590262
 -1080737.61772150 429147.026252989 -489273.402525440
 -928562.198330889 747239.141167102 -413467.460216292
 -748297.266086323 969166.512829807 -303836.967625730
 -577086.567732008 1104727.68893517 -195185.187865786
 -432847.011058366 1180308.38916405 -105190.315170945
 -320651.462332152 1219521.62360587 -38717.9568277913
 -241017.734753719 1238319.83001973 4886.82238659448
 -196102.332080813 1245940.58935704 26932.3980376858
 -596563.482673391 -1111398.18602878 -21342.7775014376
 -681624.780154024 -1061264.38034757 -25593.0655532323
 -803153.551381491 -971884.379098718 -43983.6047425892
 -934066.340806071 -844080.215250688 -81228.6409738763
 -1056626.01720769 -675613.016070962 -136520.852598683
 -1155958.43756410 -462583.419190932 -203288.223547132
 -1215901.33749662 -203494.252502075 -267812.355188292
 -1219391.77305678 91144.0857176348 -310364.125438307
 -1157443.86399023 391351.135052603 -314193.287202892
 -1039349.11954307 658746.236930420 -278129.886840690
 -888492.123213025 869127.186846725 -216215.427273963
 -729103.377488129 1019158.09470750 -145857.717816152
 -578890.156673493 1118058.86565070 -79874.8418800705
 -449195.415673289 1178611.66609189 -25445.0389890343
 -348557.462939857 1212379.65799677 13881.3120245170
 -287808.848761027 1227785.94723521 35456.5264168184
 -706963.802200725 -1044761.61561102 14992.6596271515
 -796952.234660712 -977853.130811121 14826.3667544776
 -916862.156754469 -866545.321169182 3524.59789149324
 -1035007.26976743 -720961.693028458 -22882.7365730802
 -1134949.81141918 -547305.622193543 -62409.2332421279
 -1207420.15845386 -348950.209904753 -109177.575012648
 -1245474.27829453 -128574.411749002 -154310.964189408
 -1242954.98679108 107370.277208770 -187307.114926915
 -1196829.63504245 345438.439656494 -199550.845677966
 -1110426.34481672 568307.215886701 -188493.161751412
 -992933.680430888 761992.018136389 -158114.836373309
 -856109.476279515 919364.389135903 -115737.269417137
 -712102.926057464 1039082.28305317 -69042.4700048285
 -573442.258976071 1123432.19354573 -24769.1954735834
 -454845.698467422 1176663.72330403 11282.8970099909
 -377586.569112782 1203280.39847246 33077.1279971766
 -807023.769698810 -967935.407052386 57992.3601382831
 -895927.133731564 -886205.543036084 59192.3766596482
 -1005253.05244810 -760596.330193078 50089.4595653430
 -1104316.60546364 -609324.816748149 27523.3266710989
 -1181266.11433489 -442860.862655041 -5835.61235358731
 -1232326.37800045 -266294.868654062 -44812.6313861869
 -1256163.97642719 -81711.6898224812 -83214.7522493880
 -1251633.38113818 108648.745573112 -114711.639448475
 -1217961.44850677 300237.004237311 -134078.641687838
 -1155688.22964380 486560.950969303 -138537.315455362
 -1066841.91819028 661047.935890637 -128114.710184956
 -954695.730911441 817971.021550581 -105018.570747851
 -824404.561845851 952144.821336541 -72984.8513645816
 -684975.812031145 1058767.53179715 -36998.3981193581
 -552663.442095671 1134063.98060334 -3382.09816796268
 -457747.193739772 1175433.71340268 19300.8533153449
 -878869.104429762 -900221.880816565 93483.1187801801
 -962264.003010085 -810499.877799104 93206.0487178736
 -1058823.07400824 -680906.561356868 82518.9891349391
 -1142059.64746473 -532680.143118949 59169.7361702758
 -1203599.48056273 -377107.687896938 26220.4698107802
 -1242401.03949976 -218758.692895459 -11563.8337739624
 -1259248.75495798 -58494.1627048787 -49197.9367981919
 -1254620.06004413 103688.623074677 -82015.8844290825
 -1228419.83516811 266964.739879214 -106131.838511041
 -1180250.00816930 429441.528701746 -118908.883442820
 -1109480.49879685 588563.297421250 -119145.703393278
 -1015417.40580019 740961.874666597 -107015.995101312
 -898507.511613276 881565.273082941 -84121.0543661491
 -763337.784002109 1002978.48178764 -53842.5807763570
 -623779.822066269 1096340.91955857 -22017.0979783628
 -512309.019175100 1152860.00570947 1645.30433860022
 534866.879962814 -1142073.72195564 33681.8238252432
 650037.536710301 -1081141.97227324 11518.1411556619
 792799.309050930 -981088.346329997 -22007.7982268257
 927857.801264037 -852866.495116667 -56991.8683658687
 1041204.69553005 -707120.239138616 -86157.8802296468
 1129438.12765505 -552173.751380645 -104990.928199684
 1193538.79987453 -393248.349023574 -111221.850835424
 1235408.03757304 -233330.550436236 -104274.953138372
 1256506.57159915 -74243.5534067051 -85020.9457995926
 1257595.45577042 83048.1703518542 -55732.4137801484
 1238628.41994069 238649.611301188 -19885.4534767698
 1198540.27106148 393339.974015789 18284.2665724792
 1135624.26419924 546775.956797674 54249.5580524508
 1049896.74604348 694449.557289048 83702.2457722151
 949329.203055770 824377.799694570 103560.313417791
 862060.867323685 914079.303621686 113399.817630290
 478033.091358642 -1166844.78923130 38820.5142779852
 576801.309784769 -1121855.69114816 17014.3524120662
 713349.516133906 -1040358.21932435 -18348.6848232238
 854304.150418969 -926429.047142892 -58677.6797921518
 982438.607937539 -785539.160001953 -96395.2315010003
 1089276.54700312 -623942.326016882 -125387.435066464
 1170973.20295526 -447703.562760136 -141183.245364096
 1225816.54769238 -262683.869123826 -141139.672752312
 1253136.75895360 -74797.6366162640 -124912.000363676
 1253111.51506604 110678.108147462 -94927.9627124794
 1226400.72382384 290432.232096536 -56034.0439621097