# OOMMF OVF 2.0
#
# Segment count: 1
#
# Begin: Segment
# Begin: Header
#
# Title: Oxs_MinDriver::Magnetization
# Desc: Oxs vector field output
# Desc:  MIF source file: C:/Users/grl31/Documents/GitHub/phd-work/Skyrmions/stdprob3/drive-66/stdprob3.mif
# Desc:  Iteration: 541, State id: 1147
# Desc:  Stage: 0, Stage iteration: 541
# Desc:  Stage simulation time: -1 s
# Desc:  Total simulation time: -2 s
# meshunit: m
# meshtype: rectangular
# xbase: 3.1249999999999999e-09
# ybase: 3.1249999999999999e-09
# zbase: 3.1249999999999999e-09
# xnodes: 16
# ynodes: 16
# znodes: 16
# xstepsize: 6.2499999999999997e-09
# ystepsize: 6.2499999999999997e-09
# zstepsize: 6.2499999999999997e-09
# xmin: 0
# ymin: 0
# zmin: 0
# xmax: 9.9999999999999995e-08
# ymax: 9.9999999999999995e-08
# zmax: 9.9999999999999995e-08
# valuedim: 3
# valuelabels: Magnetization_x Magnetization_y Magnetization_z
# valueunits: A/m A/m A/m
#
# End: Header
#
# Begin: Data Text
 501892.061371354 -1157377.10892560 -11489.8819134776
 608587.391879678 -1104335.16566428 -40182.8227142248
 744483.771439041 -1015911.19740111 -72234.2299599060
 879033.451979343 -899394.373017452 -99696.4543240018
 997994.223502013 -762602.025428439 -118300.936547475
 1095831.98836255 -612337.104604709 -125478.900715008
 1171116.14011417 -453456.579855199 -120056.434517594
 1223665.87360149 -289403.425376853 -102161.235711960
 1253408.44409236 -123069.573976072 -73284.2626917737
 1260305.16413800 43108.4245752116 -36359.1514848415
 1244344.99644199 207689.988505578 4453.02406193701
 1205248.24653148 370093.930828905 44233.2173298240
 1142705.60067792 528907.902374608 77651.6059328974
 1058568.80513077 679069.433636611 99228.1211322175
 962249.156707652 809147.434218268 104433.811729534
 880171.042257718 898861.581013675 94319.8042168930
 447938.683625366 -1179196.98101982 19870.7469581087
 538962.551977808 -1140625.62768589 -6478.88498776647
 667456.863137331 -1069781.90920466 -40217.3284573993
 805433.200777751 -968169.080978870 -73996.0853045030
 936852.002625207 -838632.001800568 -102733.254849948
 1052227.15799218 -685161.075956249 -122154.569693973
 1145620.32140461 -512321.513981974 -128958.041296246
 1212792.29412322 -325540.834420285 -121274.265032780
 1250742.73407683 -131577.548456405 -99395.1347661294
 1258269.21836365 62432.2694597898 -66409.4629370069
 1235996.88093857 251175.833092949 -27782.0463453584
 1185327.86483987 431794.520913407 10038.6982361630
 1108083.10957111 601697.637271200 40757.9011288818
 1008752.93024517 755318.836734814 58825.2625519581
 900015.241306277 881961.381065837 60548.4817629566
 812062.465554813 964238.324870599 48460.6624669221
 368418.256754202 -1205883.29312442 40778.6999859269
 442230.402570738 -1181395.85606770 16897.7284609956
 556742.178614267 -1131927.78501065 -18084.9935494226
 692860.909327663 -1052610.70927725 -59193.6310716227
 836722.088768977 -938666.310233213 -101740.528395519
 976130.770557384 -786868.981319345 -139840.465986988
 1098684.70940183 -597249.650569421 -166535.867428837
 1191524.22976204 -375721.668441819 -175079.035501742
 1243725.26716845 -136000.830604977 -161866.194124927
 1250594.41553330 103619.901475282 -129714.898042350
 1214924.43683377 328450.173121958 -87341.4419348528
 1143358.72776213 531276.130351915 -45010.2642449707
 1043455.92548091 708959.734587825 -11191.8376906473
 925141.341224807 857666.891751719 8392.40541588346
 805510.862784172 970863.309412169 11230.1065402579
 715738.902068666 1038877.50636158 884.172175929129
 278626.963610895 -1229576.01959346 45379.0492255948
 335964.710344887 -1215785.40302976 23302.3196611280
 432185.909015304 -1185153.82240004 -13235.8686205073
 558364.277303777 -1129546.48057835 -62478.0998675216
 707279.244000867 -1037516.08430535 -121925.701688365
 868929.471373220 -895574.497502373 -185626.841058566
 1026375.16837613 -692406.501514710 -242232.700765162
 1154181.48486722 -428370.084561229 -275524.230443820
 1225436.64302981 -126363.954406009 -271820.926099637
 1227827.66846544 173192.464893495 -232363.976497634
 1170303.24734320 437862.367792412 -173828.326368696
 1071277.39259005 656260.361615753 -115050.062218010
 947950.010933752 829607.494070485 -68495.3536507608
 815934.813876514 961354.156827500 -39974.9368197079
 693674.095789274 1053296.72578980 -30523.5514050037
 608040.137292100 1104782.33987337 -35952.8005124496
 186323.951930080 -1247200.41813460 36385.8882122380
 227778.011991661 -1240737.88168766 15366.1028663993
 302700.564516765 -1224484.20962331 -23668.9573779820
 410600.970795742 -1190015.18843286 -82584.0480943772
 552668.442204032 -1122300.38660239 -162938.227997129
 726399.918455950 -997723.199642373 -261612.320584350
 916438.649418532 -787011.636737788 -363733.853813746
 1084513.61808745 -474024.257514982 -436669.951323867
 1177640.24916323 -91499.9618925886 -443103.409424215
 1170080.23446836 279255.834655961 -380102.426506373
 1084778.31976445 577831.734677908 -284457.227517746
 959695.783767317 795845.660849462 -192777.378458344
 821954.620555481 949122.173257617 -122911.077194805
 688618.338159221 1054085.68211283 -79104.9305322661
 574410.772180367 1121635.68675779 -59456.5548404108
 498603.482941759 1157381.90697500 -58404.7868262026
 93957.0936658071 -1257929.97967264 18266.4093246591
 119514.333446292 -1255890.43916019 -2227.07114030965
 170263.207147817 -1249228.97023052 -44574.1084879977
 251355.566367568 -1230952.78107140 -114564.658370599
 371053.200348028 -1185586.36418536 -219667.763880341
 536810.302836301 -1082136.94757300 -363818.301333429
 742863.074994304 -869551.732255425 -532525.743659919
 945490.281762265 -501012.581217434 -668269.370444217
 1059864.55110294 -18268.7737144579 -684034.221469421
 1041467.95820338 427299.458396088 -569481.427097531
 935507.010587911 741425.578210710 -408245.240063787
 800902.356646476 937416.704186537 -267123.134058295
 668102.786989935 1057085.73236268 -166606.876720281
 549553.333587706 1130737.93955683 -104748.634875919
 453480.499054757 1174909.18819344 -74116.5797553860
 391777.230226221 1197342.20734949 -66570.7991140480
 1273.41796543101 -1261557.38274168 -4558.44004008494
 10277.3361671148 -1261284.51930464 -24600.1756642542
 33588.9133654062 -1259165.99478345 -70158.4877181554
 78909.3850907276 -1250025.31078457 -150862.395120516
 157554.340049210 -1219717.60911065 -281096.095447829
 283935.537672271 -1133388.07793928 -475774.637986105
 466154.185527059 -919190.668950504 -727556.334828364
 672429.131716339 -489417.313965499 -948609.079931750
 802463.737838492 104089.847091313 -967867.079771668
 793219.769205889 609357.092960772 -768788.502722502
 702083.669703236 910102.432262652 -519943.760847840
 593230.785081445 1065390.94941223 -323370.981167329
 491555.016741866 1145727.08607578 -192957.354529846
 403716.958973422 1189665.20022935 -115146.686098463
 333612.837904803 1214322.47048218 -75318.2779018672
 288718.247345473 1226501.03007219 -62341.2207176980
 -92802.6226510661 -1257835.85698924 -28036.7797754811
 -101331.253647531 -1256608.97077718 -47067.0002813024
 -108575.811785691 -1253349.83426503 -94206.7776853535
 -106940.202029635 -1243801.78644288 -181852.523079288
 -87142.4259497147 -1214609.70457081 -329664.820811915
 -35831.4486198365 -1128786.72179044 -562233.114391479
 63808.1503925126 -900416.503197722 -881321.775307763
 212604.568215472 -411536.897144262 -1173450.51484148
 349387.486907636 265076.875650752 -1182882.94640956
 401298.185235773 787492.392744404 -900202.715400882
 386923.294474957 1050852.51431017 -580989.490679137
 347024.535624773 1162336.50562679 -346550.501775241
 300702.773217199 1209117.13822840 -197896.485923325
 255373.674547531 1230474.08072725 -110757.635969190
 216012.447382685 1241220.95685064 -65257.8713219938
 189237.920807390 1246351.25744222 -48445.6739002010
 -189237.910660570 -1246351.26159140 -48445.6067905960
 -216012.437327948 -1241220.96201955 -65257.8062906245
 -255373.664917403 -1230474.08911788 -110757.564956658
 -300702.767710591 -1209117.15612586 -197896.384939853
 -347024.540247197 -1162336.54772835 -346550.355937095
 -386923.315373252 -1050852.60762055 -580989.307988206
 -401298.237487732 -787492.600763228 -900202.510133892
 -349387.594001177 -265077.231968071 -1182882.83492879
 -212604.706850891 411536.548192579 -1173450.61210327
 -63808.2622362578 900416.304814687 -881321.969891371
 35831.3794003382 1128786.63592297 -562233.291197638
 87142.3860188924 1214609.67021819 -329664.957935102
 106940.182897338 1243801.77446390 -181852.616261877
 108575.803835341 1253349.82971226 -94206.8474194942
 101331.251264086 1256608.96886916 -47067.0563536450
 92802.6188321630 1257835.85603363 -28036.8352885924
 -288718.222626502 -1226501.03960113 -62341.1477252150
 -333612.813970312 -1214322.48183797 -75318.2008325026
 -403716.929675360 -1189665.21807714 -115146.604422008
 -491554.984995132 -1145727.11662437 -192957.254014977
 -593230.753687331 -1065391.00643476 -323370.850891732
 -702083.649712784 -910102.539287523 -519943.600506184
 -793219.771857830 -609357.299631643 -768788.336174788
 -802463.801827702 -104090.161833571 -967866.992868672
 -672429.261028322 489417.008230946 -948609.146005945
 -466154.322004098 919190.483142750 -727556.482134308
 -283935.637210385 1133387.99226258 -475774.782681769
 -157554.405350780 1219717.57322752 -281096.214548493
 -78909.4251334398 1250025.29787621 -150862.481132833
 -33588.9379248456 1259165.99076085 -70158.5481553873
 -10277.3492047602 1261284.51822926 -24600.2253541086
 -1273.42791094663 1261557.38254294 -4558.49226340685
 -391777.188867538 -1197342.22517888 -66570.7218353905
 -453480.457011318 -1174909.20912817 -74116.5051359456
 -549553.288943158 -1130737.96823786 -104748.559493760
 -668102.741222741 -1057085.77566367 -166606.785513538
 -800902.305221855 -937416.778995254 -267123.025715560
 -935506.969615504 -741425.695782923 -408245.120427151
 -1041467.94240781 -427299.650637838 -569481.311739524
 -1059864.59187820 18268.5210512354 -684034.165038854
 -945490.382984409 501012.341057310 -668269.407283636
 -742863.194602019 869551.570417406 -532525.841071830
 -536810.405941476 1082136.86119463 -363818.406125551
 -371053.275745594 1185586.32289460 -219667.859375625
 -251355.617790519 1230952.76338515 -114564.735580247
 -170263.235914386 1249228.96421415 -44574.1672201068
 -119514.347563185 1255890.43772660 -2227.12199847237
 -93957.1032398122 1257929.97967018 18266.3602482074
 -498603.430000570 -1157381.93300765 -58404.7229092501
 -574410.716943322 -1121635.71873755 -59456.4851947874
 -688618.280048408 -1054085.72532418 -79104.8605960686
 -821954.566116917 -949122.230318788 -122911.000619118
 -959695.731914009 -795845.743561015 -192777.295138206
 -1084778.28037557 -577831.850719769 -284457.142005870
 -1170080.22212785 -279255.993163699 -380102.348041087
 -1177640.27920893 91499.7699569992 -443103.369205751
 -1084513.68792530 474024.078642509 -436669.972048389
 -916438.740014423 787011.503943046 -363733.912882802
 -726400.000787397 997723.120111898 -261612.395289679
 -552668.505976538 1122300.34473134 -162938.300090945
 -410601.016357151 1190015.16787980 -82584.1177311424
 -302700.589436457 1224484.20235081 -23669.0149156195
 -227778.025487816 1240737.87985620 15366.0506885604
 -186323.956336115 1247200.41898828 36385.8363883657
 -608040.075786392 -1104782.37565144 -35952.7412945093
 -693674.033633494 -1053296.76854423 -30523.4885928470
 -815934.750971459 -961354.212817002 -39974.8742974893
 -947949.957128738 -829607.560808528 -68495.2899687431
 -1071277.34780706 -656260.446866971 -115049.992926465
 -1170303.21723769 -437862.474174580 -173828.261084822
 -1227827.66123845 -173192.590389681 -232363.921146952
 -1225436.66371628 126363.817729957 -271820.896377693
 -1154181.52897048 428369.959237358 -275524.240540279
 -1026375.22671988 692406.403272275 -242232.734373842
 -868929.525814142 895574.434272058 -185626.891278303
 -707279.291585777 1037516.04586057 -121925.752795382
 -558364.312087484 1129546.46007344 -62478.1597167701
 -432185.923055270 1185153.81662609 -13235.9271845027
 -335964.713959798 1215785.40318011 23302.2596983786
 -278626.959026717 1229576.02274983 45378.9918484162
 -715738.837141266 -1038877.55104138 884.233497636317
 -805510.801303757 -970863.359691316 11230.1696702706
 -925141.283584587 -857666.953286181 8392.47086485067
 -1043455.87740540 -708959.806326256 -11191.7755922655
 -1143358.69013943 -531276.216478545 -45010.2033526576
 -1214924.41581673 -328450.265534899 -87341.3867612452
 -1250594.41190077 -103620.000783482 -129714.853733736
 -1243725.28145521 136000.736255745 -161866.163622941
 -1191524.25734762 375721.580929859 -175079.035566031
 -1098684.74255412 597249.584010305 -166535.887415491
 -976130.804724133 786868.932381447 -139840.502861123
 -836722.116900443 938666.280518913 -101740.571186649
 -692860.927931548 1052610.69412045 -59193.6828390069
 -556742.178088672 1131927.78435281 -18085.0509034400
 -442230.396399751 1181395.85922204 16897.6694275869
 -368418.244296235 1205883.29899817 40778.6388434091
 -812062.392965614 -964238.382308092 48460.7360013176
 -900015.178374633 -881961.440360762 60548.5535004886
 -1008752.87975574 -755318.898524567 58825.3349764742
 -1108083.07099981 -601697.703831263 40757.9671569848
 -1185327.83679701 -431794.596535934 10038.7566688295
 -1235996.86638164 -251175.910569168 -27781.9935115650
 -1258269.21674678 -62432.3440818606 -66409.4234190220
 -1250742.74336311 131577.479143077 -99395.1096675210
 -1212792.31121291 325540.771563963 -121274.262856354
 -1145620.34175795 512321.464806475 -128958.055847249
 -1052227.17586181 685161.043734821 -122154.596495766
 -936852.015381109 838631.983350622 -102733.289136050
 -805433.203337143 968169.075508612 -73996.1290191755
 -667456.853282794 1069781.91340905 -40217.3801688882
 -538962.539267479 1140625.63337711 -6478.94037373629
 -447938.670356543 1179196.98703949 19870.6888445475
 -880170.966937882 -898861.645831490 94319.8893748966
 -962249.095658964 -809147.496418907 104433.892302615
 -1058568.75575833 -679069.498871461 99228.2014030341
 -1142705.56726940 -528907.963697330 77651.6798789216
 -1205248.22355939 -370093.998572937 44233.2764578175
 -1244344.98517155 -207690.055085593 4453.06814559034
 -1260305.16314539 -43108.4858306271 -36359.1132648598
 -1253408.45115767 123069.517801452 -73284.2361876658
 -1223665.88612669 289403.376071337 -102161.225360962
 -1171116.15412447 453456.541271989 -120056.443580917
 -1095831.99789299 612337.083764047 -125478.919186268
 -997994.228957704 762602.013973081 -118300.964367470
 -879033.447741282 899394.373510567 -99696.4872428448
 -744483.753731306 1015911.20746334 -72234.2709485391
 -608587.373707885 1104335.17385711 -40182.8727727625
 -501892.046310353 1157377.11493322 -11489.9346483444
 513350.300141414 -1152288.54558091 15874.7594220850
 626851.604275427 -1094773.32477342 -8824.08640241450
 767921.660774888 -1000037.89406567 -42070.9432314805
 903523.661551752 -877361.084090405 -73701.7778535795
 1019937.72715091 -736036.702995904 -97603.4604720361
 1112983.57276192 -583654.687313118 -110291.448709720
 1182613.78146093 -425242.037414478 -110196.571785209
 1229801.45726734 -263974.409494302 -97238.4582056475
 1255320.27451523 -102151.845866338 -72701.0295392320
 1259592.46093464 58615.9345928727 -39248.3819715093
 1242620.80535704 217812.842600086 -728.430681291944
 1203697.94504750 375760.989418328 38267.0463811445
 1141655.11773176 531858.988758774 72794.4994647522
 1057059.69766717 681592.860509476 98007.1374403159
 958016.961099053 813342.841655578 110572.849710580
 871693.796279433 905037.354438613 112279.755600292
 457465.144683919 -1175258.89517754 32273.8535711816
 553760.365910132 -1133498.58027465 8936.25096920324
 687417.414578041 -1057520.03184291 -25653.6801406457
 827628.432486260 -950083.053459358 -62632.2615641000
 958028.756811925 -815243.838076232 -95434.8810398336
 1069743.15865695 -658065.972699999 -118946.126460713
 1157877.37903748 -483856.337560218 -129431.258338361
 1219429.54067697 -298284.592130729 -124769.100103806
 1252563.23744425 -107722.764002714 -105026.535874319
 1256802.66348309 81631.2961038701 -73026.2108915140
 1232827.08848444 265580.213742948 -33969.8526074802
 1181507.62259462 442215.627382822 5874.31427240409
 1103756.42422004 609626.033312250 40339.6383216059
 1002938.86836553 762591.826229149 64162.0121965892
 890859.281334000 890155.850817181 74442.8172221114
 799137.571069155 973369.089092315 74035.0580754961
 376145.009201832 -1203365.67606861 44445.6143106500
 454124.427984874 -1176784.01521393 22356.5731576334
 573600.746545957 -1123535.60317105 -14119.5923430646
 713088.335713191 -1039034.69320441 -58833.3468907382
 857718.239453637 -919054.873172549 -105863.084809089
 994860.189456040 -761437.993401936 -148373.907943676
 1112369.67932945 -567679.599300200 -178670.086936260
 1198595.93594690 -344975.625624898 -189496.783548501
 1244480.67034508 -107247.894191163 -176960.959671835
 1246767.22569582 128367.717325487 -143675.485029081
 1208419.91487379 348733.584986138 -98263.0498106851
 1135333.35895424 547676.168033223 -51170.4009469650
 1034097.38031895 722541.305210680 -11229.4791014678
 913784.732977635 869656.296743973 15646.6683196602
 791075.126611822 982344.447744178 27367.1511346984
 698613.681210313 1050102.52446062 27803.6592224107
 285908.378511931 -1227907.66417967 45261.4434640970
 346869.930378389 -1212711.77918068 23681.7008401964
 447830.786545847 -1179302.69766032 -15561.6461780829
 578049.698092396 -1119165.59217386 -69830.9010995563
 729026.679832840 -1020627.85195691 -135603.535428382
 889346.405264867 -870796.386799299 -205732.970373485
 1041135.21028207 -660348.815773576 -267444.099460604
 1159927.60558120 -392552.379815778 -303348.001197624
 1222094.79701866 -91704.5843570543 -299372.689513879
 1218275.67942453 203569.570392495 -256735.719859691
 1157551.25196055 463299.585653872 -192296.708074969
 1056965.86046823 677168.476966720 -125759.510678820
 932580.534033955 846663.948393254 -70732.8562341664
 799330.786415777 975440.029744786 -33711.6178546935
 675306.826080851 1065490.84445261 -15471.9732166248
 588292.839433887 1115945.22985982 -11278.7385326526
 194481.460237086 -1245981.98854020 35429.8853570070
 239281.738726235 -1238591.36756786 13605.3157805992
 318788.696371185 -1220267.75621665 -29492.3909320247
 431091.750379739 -1181794.44219905 -95243.0053122893
 575922.731970290 -1107173.63608655 -184469.448076707
 748386.867393641 -972560.455424300 -292562.280850702
 930509.903537249 -751014.973620333 -402091.108750371
 1084553.22882710 -432023.394083166 -478173.098076966
 1164036.66706222 -51825.4322697201 -483613.681799530
 1149291.07430594 312609.881967504 -415878.009921073
 1062141.24078268 605257.662223826 -311558.305726133
 937338.714450269 818083.732405337 -209008.545484206
 800425.068823102 966636.825071980 -128383.754942942
 667814.356785098 1067678.10657337 -75079.1351479833
 553742.203884876 1132572.18524600 -46896.1380369327
 477845.446932956 1166967.17928811 -37426.7581918292
 103926.935128576 -1257145.50325012 18270.3785331138
 132646.881921201 -1254566.08419004 -4263.33620539065
 187925.877056617 -1246410.71048898 -51900.2546218189
 273739.980951263 -1224587.70339180 -130387.155998369
 396662.876927165 -1171890.85329263 -246738.365391130
 560608.915717943 -1055925.15732343 -402851.258739492
 754638.911981672 -828269.277692834 -579689.181434555
 934464.901735495 -452935.815888770 -716361.588186162
 1028417.56414091 21284.8604555784 -730379.147703993
 1003979.27906459 456100.297854800 -612819.350563172
 900629.651939906 764593.622501452 -442506.783445931
 770279.395060129 956569.840985930 -288432.355641506
 641404.310859656 1072090.19157332 -175421.099249437
 526040.417031211 1141991.15176725 -103378.527044504
 432004.293650082 1183535.19296785 -64545.8611640515
 371318.543554397 1204656.86951317 -49737.2784369408
 13585.9582290633 -1261490.81341025 -2404.23366040729
 25583.2870716825 -1261046.71142438 -25614.7993808527
 53456.9431368389 -1258053.42193488 -77416.8825732965
 103987.972452946 -1246028.22861287 -167778.383601567
 186757.228885748 -1208358.75509638 -310709.329373600
 311863.448539124 -1107315.38367177 -517825.512569711
 479372.418426780 -873892.468442350 -773345.633575537
 653758.000275187 -440044.638976489 -985144.975982314
 755289.903565541 130750.470486852 -1001993.46652480
 741506.162637857 620570.638225216 -810314.830582398
 657666.912117859 920857.432265528 -557714.311333010
 556848.939213084 1077058.48967325 -348444.686627568
 461837.905227213 1155992.54851071 -204783.807958566
 379183.257993705 1197581.25319365 -116484.461518978
 312571.669290252 1220290.91670123 -68836.4808261608
 269536.847338972 1231435.01460116 -49670.1485781002
 -77971.0588688800 -1258946.26168766 -22896.6172282704
 -83723.6180123330 -1257939.64585152 -46126.2842729317
 -86398.9599356029 -1254610.77958263 -100182.046276051
 -78943.4194134982 -1243414.66459140 -198084.172334190
 -53316.3795159385 -1208220.87461534 -359039.152096267
 454.961955107564 -1108262.49019829 -602746.610731288
 91283.0213823382 -860836.242561694 -917702.459634129
 211284.653333769 -376086.783551774 -1185523.91684954
 313784.073372909 261746.415844575 -1193556.78541449
 353222.701037789 770445.068957480 -934450.400026468
 342246.330422926 1044226.41336706 -619683.853152197
 309753.347482967 1164301.44965333 -374171.657100323
 270718.574648515 1213757.20638221 -212260.048559494
 231424.599105205 1234848.63077944 -114633.960544333
 196368.722967849 1244659.90118369 -61729.1336755256
 172022.300052325 1249151.33851389 -39732.7659824659
 -172022.291303745 -1249151.34186261 -39732.6985794737
 -196368.718227094 -1244659.90543021 -61729.0631328999
 -231424.595299772 -1234848.63909698 -114633.878629477
 -270718.574508450 -1213757.22526200 -212259.940778661
 -309753.352682226 -1164301.49449206 -374171.513272483
 -342246.352756486 -1044226.51347426 -619683.672127338
 -353222.743625841 -770445.271907511 -934450.216597839
 -313784.149634179 -261746.741026939 -1193556.69405315
 -211284.753932358 376086.460636049 -1185524.00136014
 -91283.1148224442 860836.043843183 -917702.636744432
 -455.028523244892 1108262.39516253 -602746.785422053
 53316.3423717021 1208220.83526712 -359039.290024770
 78943.3967428579 1243414.64979508 -198084.274248703
 86398.9470665837 1254610.77455559 -100182.120329765
 83723.6106487165 1257939.64399714 -46126.3482105922
 77971.0541187151 1258946.26095477 -22896.6737010567
 -269536.826174906 -1231435.02243451 -49670.0692191888
 -312571.647867112 -1220290.92655446 -68836.4034319441
 -379183.235304431 -1197581.26869568 -116484.376000633
 -461837.879308328 -1155992.57709997 -204783.705027297
 -556848.915984529 -1077058.54487372 -348444.553121901
 -657666.893893377 -920857.539563168 -557714.155661536
 -741506.166286388 -620570.839034877 -810314.673455791
 -755289.953613720 -130750.763002219 -1001993.39062864
 -653758.102381036 440044.351493461 -985145.036636129
 -479372.531628727 873892.283326529 -773345.772588926
 -311863.537545673 1107315.29227748 -517825.654402026
 -186757.292888192 1208358.71349136 -310709.452707060
 -103988.016236511 1246028.21195091 -167778.480207013
 -53456.9706739657 1258053.41621153 -77416.9565651376
 -25583.3027910658 1261046.70994452 -25614.8565359037
 -13585.9696639158 1261490.81319008 -2404.28456769284
 -371318.505618125 -1204656.88447965 -49737.1991598628
 -432004.258088088 -1183535.21023562 -64545.7825519680
 -526040.374721243 -1141991.17850546 -103378.446969423
 -641404.266978304 -1072090.23374435 -175421.001966613
 -770279.352302733 -956569.908895412 -288432.244610164
 -900629.614945278 -764593.735947926 -442506.662720085
 -1003979.26574371 -456100.477041594 -612819.239024115
 -1028417.59568414 -21285.1014870190 -730379.096265016
 -934464.983878535 452935.584132552 -716361.627566934
 -754639.017233909 828269.114735206 -579689.277253731
 -560609.011439179 1055925.06410219 -402851.369878425
 -396662.950214827 1171890.80743142 -246738.465391093
 -273740.031407206 1224587.68324006 -130387.239333033
 -187925.906120893 1246410.70327890 -51900.3225365127
 -132646.902845823 1254566.08178351 -4263.39333674568
 -103926.947571617 1257145.50293578 18270.3293822072
 -477845.395629480 -1166967.20255410 -37426.6877737232
 -553742.149284816 -1132572.21494234 -46896.0655598702
 -667814.303858575 -1067678.14492184 -75079.0605768272
 -800425.018191027 -966636.878367261 -128383.669340168
 -937338.667966381 -818083.808172128 -209008.457390013
 -1062141.20310399 -605257.772418266 -311558.220105057
 -1149291.05866864 -312610.038392804 -415877.935552397
 -1164036.68872381 51825.2487941570 -483613.649322773
 -1084553.29054571 432023.216060497 -478173.118933059
 -930509.986172516 751014.838044034 -402091.170743489
 -748386.945285102 972560.372142031 -292562.358454982
 -575922.798635426 1107173.58817014 -184469.527536002
 -431091.794079130 1181794.42021697 -95243.0802768545
 -318788.725098022 1220267.74716392 -29492.4549813223
 -239281.755450609 1238591.36500968 13605.2545323568
 -194481.469394530 1245981.98862539 35429.8320941791
 -588292.780350521 -1115945.26166593 -11278.6733155560
 -675306.765712633 -1065490.88367784 -15471.9068351336
 -799330.725884597 -975440.081780056 -33711.5474678051
 -932580.481778340 -846664.011943494 -70732.7845117100
 -1056965.81900766 -677168.555636523 -125759.435532981
 -1157551.22310319 -463299.685500370 -192296.641225267
 -1218275.66979087 -203569.695483475 -256735.666387288
 -1222094.81390311 91704.4484337623 -299372.662224755
 -1159927.64621407 392552.249710087 -303348.014192920
 -1041135.26482318 660348.713600691 -267444.139413118
 -889346.461122944 870796.315859908 -205733.029170963
 -729026.726260545 1020627.81026038 -135603.599656799
 -578049.730214599 1119165.57158832 -69830.9651170670
 -447830.803738409 1179302.69026565 -15561.7118007134
 -346869.939547944 1212711.77773537 23681.6405443866
 -285908.379013306 1227907.66622678 45261.3847606219
 -698613.611669751 -1050102.56889533 27803.7283134031
 -791075.063986990 -982344.496202633 27367.2219512356
 -913784.677700787 -869656.353519204 15646.7409355064
 -1034097.33251763 -722541.374684104 -11229.4108699316
 -1135333.32477070 -547676.244710411 -51170.3387126461
 -1208419.89350435 -348733.675048076 -98262.9929798252
 -1246767.22093485 -128367.810245377 -143675.443323274
 -1244480.68211816 107247.794301723 -176960.937415850
 -1198595.96012065 344975.537183747 -189496.791651458
 -1112369.71515270 567679.521116631 -178670.112315543
 -994860.224356723 761437.939314448 -148373.951502315
 -857718.271634491 919054.837215798 -105863.136235137
 -713088.356049988 1039034.67594336 -58833.4052401233
 -573600.750429046 1123535.60041412 -14119.6539716849
 -454124.421032072 1176784.01911229 22356.5091898429
 -376145.002791538 1203365.68036152 44445.5523306066
 -799137.496361324 -973369.144266833 74035.1390730157
 -890859.217144485 -890155.908252921 74442.8985873419
 -1002938.81335399 -762591.891755749 64162.0932905663
 -1103756.38466143 -609626.100215191 40339.7096483043
 -1181507.59530005 -442215.699498227 5874.37524612037
 -1232827.07355749 -265580.289249427 -33969.8040149723
 -1256802.66082008 -81631.3716696428 -73026.1722525641
 -1252563.24574260 107722.694280523 -105026.508418934
 -1219429.55715674 298284.526771650 -124769.095292370
 -1157877.39978163 483856.282549703 -129431.278410813
 -1069743.18015773 658065.931857510 -118946.159053112
 -958028.774298455 815243.812342510 -95434.9253282211
 -827628.439372072 950083.044258213 -62632.3101485928
 -687417.405806097 1057520.03618078 -25653.7363742911
 -553760.353669914 1133498.58671144 8936.19300881469
 -457465.131013864 1175258.90216822 32273.7927700748
 -871693.714549485 -905037.421524343 112279.849369528
 -958016.896358540 -813342.905420694 110572.941592089
 -1057059.64941133 -681592.922897279 98007.2240280547
 -1141655.08261788 -531859.053554069 72794.5767505086
 -1203697.92251382 -375761.055382212 38267.1074542076
 -1242620.79408841 -217812.907041428 -728.384661398367
 -1259592.45930676 -58615.9942516143 -39248.3451166959
 -1255320.28041400 102151.790176285 -72701.0059355603
 -1229801.46870724 263974.359707915 -97238.4486777614
 -1182613.79643302 425241.992780442 -110196.583346996
 -1112983.58652440 583654.656301894 -110291.473937769
 -1019937.73817972 736036.683157442 -97603.4948267195
 -903523.661325502 877361.080485085 -73701.8235456789
 -767921.649790287 1000037.90042089 -42070.9926682071
 -626851.587319518 1094773.33404725 -8824.14035591092
 -513350.278528933 1152288.55600838 15874.7014251460
 535355.710283212 -1141226.87147558 50447.2220065011
 652726.659958265 -1079238.67967598 27225.1830100709
 797162.384926056 -977761.995140860 -7940.01486919919
 932722.336816714 -848285.013661972 -44620.7229729672
 1045581.56493337 -701897.202647602 -75159.4232676046
 1132800.15588287 -547093.848745285 -94876.5430217677
 1195788.48027496 -389017.388476163 -101512.623962963
 1236730.15187649 -230439.682055012 -94580.7342586168
 1257219.89836533 -72922.7796292999 -75032.1683303138
 1258032.74029823 82846.4480075921 -45161.0596554462
 1239023.90505040 237273.472915204 -8395.99210230401
 1198893.76844572 391452.609097698 31112.9833280198
 1135539.19847409 545302.240874227 68888.5022722695
 1048473.14566684 694367.737147866 100533.274802902
 945368.057394707 826308.611643907 122648.869949269
 855085.410067046 917803.267204523 134221.962130383
 477237.584742391 -1166581.78934047 53671.6629832878
 577566.035034014 -1121155.92187996 31245.8785687058
 715670.495538774 -1038911.97722275 -5203.49088151170
 857543.839963567 -924111.318375178 -46757.5096683401
 985837.604054955 -782534.381898774 -85519.5328357386
 1092245.46429059 -620710.267082850 -115186.982743395
 1173225.26137649 -444817.640419032 -131259.985368960
 1227358.90250027 -260642.491831593 -131168.009911381
 1254171.42042835 -73883.4854015181 -114650.380220053
 1253897.18292095 110485.124403304 -84168.4196564094
 1227091.31676619 289504.610299124 -44535.5122516585