# OOMMF OVF 2.0
#
# Segment count: 1
#
# Begin: Segment
# Begin: Header
#
# Title: Oxs_MinDriver::Magnetization
# Desc: Oxs vector field output
# Desc:  MIF source file: C:/Users/grl31/Documents/GitHub/phd-work/Skyrmions/stdprob3/drive-61/stdprob3.mif
# Desc:  Iteration: 513, State id: 1091
# Desc:  Stage: 0, Stage iteration: 513
# Desc:  Stage simulation time: -1 s
# Desc:  Total simulation time: -2 s
# meshunit: m
# meshtype: rectangular
# xbase: 3.1249999999999999e-09
# ybase: 3.1249999999999999e-09
# zbase: 3.1249999999999999e-09
# xnodes: 16
# ynodes: 16
# znodes: 16
# xstepsize: 6.2499999999999997e-09
# ystepsize: 6.2499999999999997e-09
# zstepsize: 6.2499999999999997e-09
# xmin: 0
# ymin: 0
# zmin: 0
# xmax: 9.9999999999999995e-08
# ymax: 9.9999999999999995e-08
# zmax: 9.9999999999999995e-08
# valuedim: 3
# valuelabels: Magnetization_x Magnetization_y Magnetization_z
# valueunits: A/m A/m A/m
#
# End: Header
#
# Begin: Data Text
 501891.807777747 -1157377.21336318 -11490.4391659474
 608587.057372453 -1104335.33155951 -40183.3297157378
 744483.391138062 -1015911.44421954 -72234.6782528441
 879033.088733773 -899394.683622924 -99696.8550202891
 997993.919714943 -762602.364817336 -118301.311514137
 1095831.76117356 -612337.434521384 -125479.274806578
 1171115.99059600 -453456.862808854 -120056.824299370
 1223665.78914768 -289403.634053587 -102161.656139303
 1253408.40539653 -123069.691703928 -73284.7268138001
 1260305.15029040 43108.3881954195 -36359.6746085910
 1244344.99441633 207690.013276569 4452.43474592837
 1205248.25467727 370093.983935196 44232.5510379925
 1142705.64229976 528907.925336503 77650.8370301001
 1058568.92672258 679069.375367730 99227.2227467880
 962249.415990944 809147.259261408 104432.778253736
 880171.448511488 898861.301889806 94318.6731729511
 447938.512035265 -1179197.05537647 19870.2024663898
 538962.323027375 -1140625.73301093 -6479.38802370377
 667456.589272317 -1069782.06271030 -40217.7903322489
 805432.917592898 -968169.284326931 -73996.5070974473
 936851.748550339 -838632.236206095 -102733.658326232
 1052226.95346044 -685161.318132302 -122154.973150962
 1145620.17663403 -512321.731645769 -128958.462659315
 1212792.20586798 -325540.993301564 -121274.721129592
 1250742.68670803 -131577.626534813 -99395.6274732913
 1258269.19031665 62432.2635092077 -66409.9999393247
 1235996.85895175 251175.876657749 -27782.6306452562
 1185327.85343527 431794.567203592 10038.0537436246
 1108083.13711626 601697.635404289 40757.1798145036
 1008753.05311180 755318.736043931 58824.4484681183
 900015.508050059 881961.170899384 60547.5781029826
 812062.875998999 964238.027941321 48459.6926839137
 368418.161019721 -1205883.33940926 40778.1961957448
 442230.276669188 -1181395.91002996 16897.2506793406
 556742.018473393 -1131927.85650964 -18085.4483664471
 692860.726260396 -1052610.80512184 -59194.0695139483
 836721.903027161 -938666.427911291 -101740.970242166
 976130.598775623 -786869.113223045 -139840.922867647
 1098684.56648002 -597249.778165381 -166536.352725034
 1191524.12628791 -375721.752908394 -175079.558441938
 1243725.19230433 -136000.858823747 -161866.745645057
 1250594.35315052 103619.931573408 -129715.475436474
 1214924.38029584 328450.222563127 -87342.0424535342
 1143358.69107638 531276.156155689 -45010.8915652287
 1043455.94412786 708959.696737301 -11192.4968320800
 925141.470674447 857666.759015605 8391.70047982308
 805511.139982399 970863.088066744 11229.3594081096
 715739.314270933 1038877.22303942 883.388834611075
 278626.912065925 -1229576.04785498 45378.5999439980
 335964.646789956 -1215785.42891742 23301.8852958199
 432185.827148283 -1185153.84741168 -13236.3022174686
 558364.175456617 -1129546.50589501 -62478.5523677597
 707279.119981057 -1037516.11218131 -121926.183906315
 868929.329307149 -895574.526149265 -185627.367867192
 1026375.01862017 -692406.522202143 -242233.276168518
 1154181.33594788 -428370.085465051 -275524.852866635
 1225436.50238872 -126363.934280884 -271821.569499773
 1227827.54100905 173192.504383899 -232364.620551089
 1170303.14174798 437862.400334278 -173828.955318928
 1071277.33402284 656260.350470575 -115050.671132825
 947950.034374127 829607.418026292 -68495.9502802486
 815934.955037419 961354.012421056 -39975.5283764382
 693674.372804145 1053296.52608436 -30524.1473647012
 608040.529947339 1104782.10398833 -35953.4082866482
 186323.905554241 -1247200.43636688 36385.5007417124
 227777.963040492 -1240737.89548632 15365.7143103415
 302700.511809509 -1224484.21474015 -23669.3667301564
 410600.902606684 -1190015.18023291 -82584.5052826294
 552668.346452931 -1122300.35777654 -162938.751322650
 726399.780404769 -997723.142588052 -261612.921491045
 916438.453335907 -787011.555575786 -363734.523459660
 1084513.36449039 -474024.175565211 -436670.670116970
 1177639.97814948 -91499.9115541924 -443104.140094197
 1170079.99708275 279255.855804055 -380103.141719370
 1084778.15140862 577831.722392642 -284457.894497961
 959695.707183361 795845.607637851 -192777.979386451
 821954.652995593 949122.075297957 -122911.616700564
 688618.484616980 1054085.54912442 -79105.4276888114
 574411.028578676 1121635.53054961 -59457.0246045622
 498603.831671996 1157381.73338722 -58405.2496146494
 93957.0123561548 -1257929.99062667 18266.0731972100
 119514.255024579 -1255890.44600373 -2227.42035073952
 170263.134993754 -1249228.96629005 -44574.4945336780
 251355.483372272 -1230952.75578617 -114565.112141864
 371053.090529146 -1185586.29733051 -219668.310208507
 536810.126302449 -1082136.81731179 -363818.949254170
 742862.779936817 -869551.542164332 -532526.465655116
 945489.851398045 -501012.409837635 -668270.107823882
 1059864.06937526 -18268.7326645287 -684034.968969493
 1041467.56860606 427299.407745474 -569482.177597425
 935506.769316065 741425.499104814 -408245.936611680
 800902.256336054 937416.618438310 -267123.735730194
 668102.814486735 1057085.63595393 -166607.378149153
 549553.470591135 1130737.83297055 -104749.066674922
 453480.718597071 1174909.07921721 -74116.9640001730
 391777.514409548 1197342.09430153 -66571.1599393102
 1273.28764791845 -1261557.38179017 -4558.73976597478
 10277.2103051314 -1261284.51415525 -24600.4922602175
 33588.7897116790 -1259165.97781415 -70158.8514728176
 78909.2499585578 -1250025.26518853 -150862.843603967
 157554.177812430 -1219717.50225881 -281096.650026883
 283935.301855493 -1133387.86451314 -475775.287140405
 466153.793173016 -919190.342870277 -727556.998181850
 672428.516084830 -489417.048977074 -948609.653042536
 802463.039539695 104089.814313522 -967867.662259590
 793219.239673893 609356.903332671 -768789.199384944
 702083.365126046 910102.268254209 -519944.459198080
 593230.654103242 1065390.83946064 -323371.583699854
 491555.016289108 1145727.00413194 -192957.842242341
 403717.057613385 1189665.12855613 -115147.080764049
 333613.006450116 1214322.40317681 -75318.6164847465
 288718.464541960 1226500.96299514 -62341.5344974003
 -92802.8126011216 -1257835.83690193 -28037.0522254471
 -101331.445241461 -1256608.94430109 -47067.2946613753
 -108576.002972909 -1253349.79144756 -94207.1269900855
 -106940.398480528 -1243801.70624648 -181852.956066473
 -87142.6376170812 -1214609.54621151 -329665.348315469
 -35831.7080446130 -1128786.42350558 -562233.696719649
 63807.7720012247 -900416.063494382 -881322.251933124
 212603.991936088 -411536.604642390 -1173450.72183335
 349386.805946618 265076.674900114 -1182883.19253140
 401297.645876755 787492.025927495 -900203.276728838
 386922.960366809 1050852.26649077 -580990.161423720
 347024.366541319 1162336.37864065 -346551.097003143
 300702.725128697 1209117.07046370 -197896.973024892
 255373.713928184 1230474.03733141 -110758.027279354
 216012.549333376 1241220.92159921 -65258.2043413543
 189238.064710995 1246351.22371844 -48445.9793888133
 -189238.171235483 -1246351.21198077 -48445.8652566100
 -216012.695161675 -1241220.90243763 -65258.0860879124
 -255373.914110164 -1230474.00816650 -110757.889731053
 -300703.005956562 -1209117.03095322 -197896.787711460
 -347024.762814126 -1162336.33776541 -346550.837284885
 -386923.513058891 -1050852.26561317 -580989.794933432
 -401298.407806143 -787492.163096380 -900202.817076793
 -349387.791229535 -265077.055997679 -1182882.81610746
 -212605.034521149 411536.161600706 -1173450.68831637
 -63808.6455360749 900415.810990059 -881322.446663490
 35831.0622088508 1128786.32967251 -562233.926265921
 87142.1793253124 1214609.52589239 -329665.544321576
 106940.074975420 1243801.71242565 -181853.104043400
 108575.771515317 1253349.80255889 -94207.2459230787
 101331.275782896 1256608.95384639 -47067.4046475322
 92802.6871011367 1257835.84382995 -28037.1568164682
 -288718.547666453 -1226500.95023446 -62341.4005801313
 -333613.127776982 -1214322.37856526 -75318.4758835162
 -403717.222331060 -1189665.08845107 -115146.917600775
 -491555.236917903 -1145726.94594739 -192957.625678818
 -593230.946510899 -1065390.76888416 -323371.279796386
 -702083.739874242 -910102.225462613 -519944.028075284
 -793219.722375766 -609356.994141448 -768788.629366984
 -802463.680429783 -104090.159621020 -967867.093758287
 -672429.285314877 489416.570003781 -948609.354885145
 -466154.537665850 919189.984788032 -727556.973575175
 -283935.913438779 1133387.66945041 -475775.386833329
 -157554.644343371 1219717.41212030 -281096.779660237
 -78909.5942454011 1250025.22861408 -150862.966573320
 -33589.0450097544 1259165.96469502 -70158.9647011502
 -10277.3968903162 1261284.51057383 -24600.5979328141
 -1273.43526832508 1261557.38127225 -4558.84185747621
 -391777.572799852 -1197342.08475457 -66570.9880171489
 -453480.806932795 -1174909.05621021 -74116.7882315564
 -549553.592464448 -1130737.79209573 -104748.868513437
 -668102.972367442 -1057085.57431425 -166607.136130045
 -800902.441899288 -937416.548646253 -267123.424287087
 -935506.974758747 -741425.465308477 -408245.527212238
 -1041467.80664396 -427299.505331613 -569481.669052241
 -1059864.39879767 18268.4137553229 -684034.467069509
 -945490.318877014 501011.961615561 -668269.782458346
 -742863.322046087 869551.147898520 -532526.353212658
 -536810.640590138 1082136.55288987 -363818.976920941
 -371053.524318090 1185586.14443032 -219668.402700375
 -251355.832742063 1230952.67396993 -114565.224705355
 -170263.401934948 1249228.92595483 -44574.6053065743
 -119514.462556441 1255890.42606363 -2227.52789415021
 -93957.1772582491 1257929.97983118 18265.9684262222
 -498603.863937772 -1157381.73103753 -58405.0207247023
 -574411.088948979 -1121635.51165148 -59456.7978765040
 -688618.568655807 -1054085.51215567 -79105.1887356458
 -821954.752276394 -949122.023251635 -122911.354674529
 -959695.807517540 -795845.559033736 -192777.680550658
 -1084778.24436197 -577831.720195316 -284457.544484282
 -1170080.09847661 -279255.965273505 -380102.749170662
 -1177640.13988691 91499.6361045219 -443103.767123266
 -1084513.64009300 474023.785610937 -436670.408942785
 -916438.823950868 787011.176667048 -363734.409529332
 -726400.186872990 997722.846478371 -261612.922167339
 -552668.735474014 1122300.15535780 -162938.826043298
 -410601.239444592 1190015.05625493 -82584.6170427493
 -302700.786872610 1224484.14439955 -23669.4879488088
 -227778.181321775 1240737.85686909 15365.5967858282
 -186324.084238845 1247200.41303126 36385.3856123003
 -608040.538378999 -1104782.10922579 -35953.1047526270
 -693674.401362361 -1053296.51560718 -30523.8599017894
 -815935.000005442 -961353.986016999 -39975.2455189671
 -947950.084946458 -829607.383611909 -68495.6672028261
 -1071277.37790538 -656260.328704199 -115050.386684212
 -1170303.17543927 -437862.426295462 -173828.663097814
 -1227827.58058839 -173192.618668059 -232364.326229979
 -1225436.58468515 126363.701500101 -271821.306702288
 -1154181.50139919 428369.760729068 -275524.664666847
 -1026375.27117653 692406.179245365 -242233.186370250
 -868929.640773705 895574.222989400 -185627.372498683
 -707279.452098454 1037515.87692117 -121926.259250261
 -558364.491860485 1129546.34282505 -62478.6728322610
 -432186.102809888 1185153.74530788 -13236.4436184448
 -335964.875810918 1215785.36834688 23301.7435818824
 -278627.105790503 1229576.00907278 45378.4613051529
 -715739.294578209 -1038877.23628240 883.770268009980
 -805511.134327033 -970863.088641563 11229.7153790285
 -925141.479611541 -857666.746176379 8392.02742756979
 -1043455.95643099 -708959.683286240 -11192.2018530357
 -1143358.69857236 -531276.163048864 -45010.6197908066
 -1214924.38543339 -328450.270061128 -87341.7923735882
 -1250594.36736943 -103620.041729191 -129715.250355704
 -1243725.23873484 136000.663117489 -161866.553322536
 -1191524.23064109 375721.485155012 -175079.422854395
 -1098684.73949353 597249.476965452 -166536.291502728
 -976130.831003112 786868.822534569 -139840.937522558
 -836722.175913237 938666.175921060 -101741.050887566
 -692861.010777739 1052610.61011433 -59194.2069609512
 -556742.286906651 1131927.72179537 -18085.6163855451
 -442230.515504468 1181395.82322197 16897.0692517497
 -368418.372163002 1205883.28110456 40778.0127547100
 -812062.821341214 -964238.051065098 48460.1484983479
 -900015.466132283 -881961.185389113 60547.9901291027
 -1008753.02675960 -755318.743520475 58824.8043681586
 -1108083.11991660 -601697.646379672 40757.4853985362
 -1185327.84096165 -431794.595340595 10038.3163330958
 -1235996.85187251 -251175.936437344 -27782.4051338408
 -1258269.19509084 -62432.3722592145 -66409.8072463716
 -1250742.71614175 131577.461310793 -99395.4758141652
 -1212792.27643764 325540.769835835 -121274.615261659
 -1145620.29690072 512321.474388095 -128958.416277779
 -1052227.12377519 685161.053418101 -122154.990850777
 -936851.964209525 838631.984867242 -102733.743401756
 -805433.162163014 968169.069515894 -73996.6555985444
 -667456.844816937 1069781.89578733 -40217.9894032218
 -538962.574119903 1140625.61309370 -6479.61199643045
 -447938.743794005 1179196.97125176 19869.9702537270
 -880171.363751667 -898861.331550627 94319.1814718433
 -962249.345452792 -809147.285531503 104433.224653971
 -1058568.87470848 -679069.401807039 99227.5966997349
 -1142705.60682229 -528907.956403704 77651.1475041714
 -1205248.23132015 -370094.029040263 44232.8100775622
 -1244344.98201471 -207690.082905108 4452.65276265894
 -1260305.15180917 -43108.4942132998 -36359.4962683985
 -1253408.42806233 123069.541266555 -73284.5917892606
 -1223665.84273357 289403.441797364 -102161.558924760
 -1171116.08241194 453456.637264037 -120056.780550949
 -1095831.89501371 612337.192546297 -125479.286793195
 -997994.094683738 762602.122822244 -118301.395437021
 -879033.300124892 899394.460077702 -99697.0078389168
 -744483.629863405 1015911.25437375 -72234.8878390001
 -608587.308882396 1104335.18360122 -40183.5867822818
 -501892.062438714 1157377.10020492 -11490.7136951696
 513350.059797322 -1152288.66160266 15874.1099587351
 626851.282378920 -1094773.50427002 -8824.68397132889
 767921.287958240 -1000038.15790987 -42071.4766053212
 903523.303258801 -877361.413269039 -73702.2516196975
 1019937.43133235 -736037.055207128 -97603.8956607128
 1112983.35486956 -583655.023203866 -110291.870013782
 1182613.64202581 -425242.315243166 -110196.996057200
 1229801.37845863 -263974.610387417 -97238.9095528183
 1255320.23714414 -102151.952136707 -72701.5254997276
 1259592.44465768 58615.9140531234 -39248.9350169581
 1242620.79618999 217812.892806179 -729.055897670247
 1203697.94205661 375761.071565656 38266.3338127007
 1141655.14343308 531859.047056002 72793.6704420990
 1057059.79756247 681592.845852529 98006.1619429976
 958017.197680052 813342.715831268 110571.725465564
 871694.185853657 905037.133397132 112278.512816055
 457464.993684616 -1175258.97029787 32273.2583803184
 553760.152444599 -1133498.68896810 8935.69197542942
 687417.145522391 -1057520.19414971 -25654.1990005483
 827628.152201168 -950083.266275554 -62632.7370167448
 958028.503624803 -815244.083183006 -95435.3288697430
 1069742.95637640 -658066.221597126 -118946.568655520
 1157877.23616174 -483856.558739118 -129431.709648562
 1219429.45383738 -298284.746578161 -124769.579592267
 1252563.18746630 -107722.840860773 -105027.053086765
 1256802.63034488 81631.2997470958 -73026.7771351663
 1232827.06036323 265580.264400591 -33970.4771238807
 1181507.60362915 442215.687247737 5873.62217572670
 1103756.44529905 609626.046994028 40338.8547952304
 1002938.97945199 762591.755399522 64161.1175980658
 890859.540642910 890155.674967942 74441.8167888524
 799137.976837444 973368.838220076 74033.9765054563
 376144.939463939 -1203365.71752266 44445.0821328843
 454124.315236065 -1176784.06847047 22356.0601271166
 573600.593387354 -1123535.67517794 -14120.0845284397
 713088.155675996 -1039034.78992501 -58833.8208776166
 857718.050784971 -919054.995201250 -105863.554031660
 994860.010441984 -761438.133748428 -148374.388005612
 1112369.53217039 -567679.730114060 -178670.587494445
 1198595.82269834 -344975.721232260 -189497.325810510
 1244480.58605154 -107247.928892536 -176961.531435617
 1246767.15499430 128367.732313007 -143676.085161011
 1208419.85098762 348733.628900738 -98263.6796163313
 1135333.31797367 547676.190401561 -51171.0707829666
 1034097.39653088 722541.270823543 -11230.1987386827
 913784.860453107 869656.176778660 15645.8913575639
 791075.403965350 982344.247646631 27366.3164417184
 698614.089595681 1050102.27601962 27802.7810795948
 285908.351717459 -1227907.68745334 45260.9813212055
 346869.881461701 -1212711.80207354 23681.2450103774
 447830.713089120 -1179302.71956335 -15562.1002284508
 578049.595455804 -1119165.61590849 -69831.3703181302
 729026.549535455 -1020627.87921313 -135604.030781880
 889346.248602674 -870796.421393644 -205733.501169179
 1041135.04064559 -660348.851760362 -267444.670983804
 1159927.43660593 -392552.403597647 -303348.616541187
 1222094.63917775 -91704.5916769743 -299373.331606754
 1218275.53910591 203569.590981168 -256736.369380979
 1157551.13978527 463299.596435452 -192297.357349291
 1056965.80125794 677168.450258847 -125760.152131551
 932580.559954582 846663.866148694 -70733.4989371961
 799330.928347475 975439.890825693 -33712.2721286896
 675307.106625034 1065490.65690753 -15472.6437119055
 588293.229031433 1115945.01758007 -11279.4207713079
 194481.433039363 -1245982.00411787 35429.4868199756
 239281.704021982 -1238591.37869307 13604.9133215356
 318788.651438444 -1220267.75770547 -29492.8150145422
 431091.680906475 -1181794.43008090 -95243.4701275906
 575922.628294959 -1107173.60374884 -184469.965844247
 748386.704628002 -972560.405282818 -292562.863896145
 930509.677048278 -751014.914254920 -402091.743766441
 1084552.95075995 -432023.349656720 -478173.768904381
 1164036.37803090 -51825.4269828325 -483614.378051059
 1149290.82834547 312609.860647845 -415878.705665094
 1062141.07027459 605257.616237154 -311558.976346080
 937338.641914154 818083.655832043 -209009.170502069
 800425.108377211 966636.715334589 -128384.334579574
 667814.512647376 1067677.97044434 -75079.6846314703
 553742.465500600 1132572.03536063 -46896.6687446616
 477845.789841371 1166967.02211307 -37427.2808307020
 103926.872335749 -1257145.51345011 18270.0338733360
 132646.818425101 -1254566.08967994 -4263.69626373294
 187925.810502225 -1246410.70391992 -51900.6533665800
 273739.897765867 -1224587.67372908 -130387.609230632
 396662.752222144 -1171890.78294804 -246738.899973114
 560608.712240314 -1055925.03213482 -402851.870034493
 754638.590651464 -828269.116638336 -579689.829858759
 934464.456899810 -452935.703198813 -716362.239706765
 1028417.09342257 21284.8406351299 -730379.811080756
 1003978.90650656 456100.184017212 -612820.045648236
 900629.426665587 764593.495258871 -442507.461802390
 770279.311050868 956569.723650516 -288432.969129969
 641404.349045498 1072090.08114351 -175421.634521433
 526040.557466565 1141991.04395499 -103379.003408889
 432004.517094731 1183535.08790941 -64546.2920388486
 371318.825327041 1204656.76569231 -49737.6894160146
 13585.8451982868 -1261490.81403512 -2404.54449211797
 25583.1754530757 -1261046.70697465 -25615.1299251599
 53456.8254834983 -1258053.40364709 -77417.2609962136
 103987.838652631 -1246028.17924383 -167778.833175137
 186757.053816978 -1208358.64618505 -310709.858160917
 311863.187129119 -1107315.18138200 -517826.102580373
 479372.003451211 -873892.195131253 -773346.199651105
 653757.415767551 -440044.460594004 -985145.443550555
 755289.280375030 130750.370781649 -1001993.94928811
 741505.696962678 620570.392029617 -810315.445260088
 657666.648580738 920857.218310258 -557714.975367730
 556848.836892443 1077058.34543748 -348445.295984833
 461837.918202733 1155992.45183309 -204784.324434386
 379183.359249392 1197581.17886269 -116484.896107428
 312571.838760473 1220290.85192590 -68836.8595942866
 269537.058024186 1231434.95420098 -49670.5027421138
 -77971.2355612032 -1258946.24559445 -22896.9003941587
 -83723.7941835204 -1257939.62272104 -46126.5953102086
 -86399.1441711307 -1254610.73837135 -100182.403488568
 -78943.6198431523 -1243414.58357491 -198084.601012387
 -53316.6065034324 -1208220.71537959 -359039.654241051
 454.676362118645 -1108262.20595740 -602747.133576585
 91282.6259509336 -860835.869152578 -917702.849237585
 211284.114688926 -376086.587035608 -1185524.07518826
 313783.493736122 261746.190911925 -1193556.98712747
 353222.251477462 770444.679147382 -934450.891354721
 342246.054206951 1044226.13097791 -619684.481556236
 309753.209850415 1164301.29418384 -374172.254808058
 270718.541530578 1213757.12552202 -212260.553177070
 231424.641917046 1234848.58368881 -114634.381379472
 196368.823705801 1244659.86718190 -61729.4987998509
 172022.435801579 1249151.30896593 -39733.1072098253
 -172022.539205377 -1249151.29908894 -39732.9700464493
 -196368.964144899 -1244659.85214512 -61729.3552347635
 -231424.839318426 -1234848.56154766 -114634.221369809
 -270718.819507134 -1213757.09970593 -212260.346266248
 -309753.596343200 -1164301.28259668 -374171.970910629
 -342246.587013462 -1044226.17712813 -619684.109524322
 -353222.965864401 -770444.882385839 -934450.453748288
 -313784.388242566 -261746.606884667 -1193556.66074073
 -211285.047491174 376086.122866425 -1185524.05619325
 -91283.4246987991 860835.572176894 -917703.048359921
 -455.285079815284 1108262.07241124 -602747.378666382
 53316.1672524273 1208220.66976965 -359039.872952626
 78943.3044344249 1243414.57575593 -198084.775794709
 86398.9198064757 1254610.74232388 -100182.547485778
 83723.6365220836 1257939.62859703 -46126.7212323702
 77971.1130860592 1258946.25085832 -22897.0280354179
 -269537.142834698 -1231434.94208977 -49670.3427793232
 -312571.954064828 -1220290.83171437 -68836.6943199962
 -379183.520737564 -1197581.14613183 -116484.706934389
 -461838.139968047 -1155992.40593238 -204784.083406108
 -556849.129421567 -1077058.29927990 -348444.971170033
 -657667.024600589 -920857.216001337 -557714.535770969
 -741506.177143758 -620570.529812878 -810314.900334658
 -755289.895628849 -130750.738825416 -1001993.43749175
 -653758.127010952 440043.984557945 -985145.184193910
 -479372.699592830 873891.818992779 -773346.193177110
 -311863.764915397 1107314.96303537 -517826.221516183
 -186757.498962817 1208358.53658157 -310710.016849409
 -103988.169884419 1246028.13132377 -167778.983763880
 -53457.0663244601 1258053.38522931 -77417.3939888136
 -25583.3538564646 1261046.70082645 -25615.2544225893
 -13585.9855364277 1261490.81229426 -2404.66486701181
 -371318.881216672 -1204656.75667976 -49737.4904548226
 -432004.604221228 -1183535.06716616 -64546.0892588817
 -526040.682024649 -1141991.00692874 -103378.778614747
 -641404.509977719 -1072090.02838179 -175421.368548767
 -770279.503102857 -956569.669505084 -288432.635812078
 -900629.643352349 -764593.485277285 -442507.038029350
 -1003979.16198991 -456100.302639377 -612819.538805070
 -1028417.43046796 -21285.1561665144 -730379.327305753
 -934464.907125166 452935.260484465 -716361.932322187
 -754639.102121420 828268.717646733 -579689.734113144
 -560609.200272597 1055924.75531474 -402851.916468292
 -396663.166522380 1171890.61868735 -246739.014093773
 -273740.225873542 1224587.58619225 -130387.742527819
 -187926.066189383 1246410.65972929 -51900.7888064897
 -132647.013760166 1254566.06857801 -4263.82834674883
 -103927.032398782 1257145.50207543 18269.9060550687
 -477845.827591874 -1166967.01491488 -37427.0232938627
 -553742.521116377 -1132572.01885944 -46896.4105586215
 -667814.594406567 -1067677.93799595 -75079.4188393883
 -800425.208935736 -966636.670392491 -128384.046016846
 -937338.750249147 -818083.614220347 -209008.847526832
 -1062141.17668408 -605257.619088807 -311558.608043578
 -1149290.94387738 -312609.971589555 -415878.302996401
 -1164036.54486977 51825.1568277807 -483614.005428272
 -1084553.21352046 432022.971416871 -478173.514667561
 -930510.028515219 751014.534141494 -402091.640375416
 -748387.088339625 972560.104711700 -292562.881529183
 -575922.993852991 1107173.39812359 -184470.058702826
 -431092.002368630 1181794.30201585 -95243.6041717418
 -318788.911089675 1220267.68632308 -29492.9618880826
 -239281.913602594 1238591.33979754 13604.7682876715
 -194481.605725805 1245981.98115572 35429.3464311051
 -588293.240634413 -1115945.01483937 -11279.0867522331
 -675307.133955407 -1065490.64429597 -15472.3193363084
 -799330.975484669 -975439.863065685 -33711.9577016938
 -932580.612233405 -846663.833959326 -70733.1949696614
 -1056965.84880264 -677168.433179393 -125759.844502268
 -1157551.18103172 -463299.622259421 -192297.046844961
 -1218275.58529006 -203569.698268838 -256736.065156121
 -1222094.72246828 91704.3649150146 -299373.061062044
 -1159927.59152830 392552.089598565 -303348.430492263
 -1041135.27461231 660348.515356220 -267444.590791689
 -889346.540045166 870796.119583265 -205733.518774587
 -729026.861432374 1020627.64434741 -135604.121703121
 -578049.894332272 1119165.45261615 -69831.5133151873
 -447830.977579520 1179302.61690384 -15562.2685647953
 -346870.102350406 1212711.74230632 23681.0702193789
 -285908.537757335 1227907.65052838 45260.8078838632
 -698614.072124249 -1050102.27643140 27803.2045369302
 -791075.398466303 -982344.241099209 27366.7104262103
 -913784.871299379 -869656.158906031 15646.2513127066
 -1034097.40985652 -722541.256816548 -11229.8728825027
 -1135333.32841770 -547676.196242006 -51170.7765508705
 -1208419.86025794 -348733.671750076 -98263.4135416234
 -1246767.17133429 -128367.841334364 -143675.845963080
 -1244480.62990184 107247.742718613 -176961.335889618
 -1198595.91766837 344975.464513147 -189497.192463682
 -1112369.68883797 567679.440623506 -178670.531892821
 -994860.225245629 761437.848309362 -148374.412568940
 -857718.303896973 919054.747514989 -105863.653579569
 -713088.424251252 1039034.59649483 -58833.9817167888
 -573600.851082410 1123535.54108527 -14120.2859287529
 -454124.547284534 1176783.98303205 22355.8437949912
 -376145.143364658 1203365.66193358 44444.8615847320
 -799137.926284437 -973368.841510251 74034.4789253975
 -890859.500142714 -890155.677268800 74442.2739480135
 -1002938.95295593 -762591.757109711 64161.5114452679
 -1103756.42928255 -609626.053660665 40339.1922889062
 -1181507.59324408 -442215.711240389 5873.90480741273
 -1232827.05549482 -265580.318086140 -33970.2340910449
 -1256802.63538051 -81631.4010543391 -73026.5772267535
 -1252563.21407968 107722.682562606 -105026.898054021
 -1219429.51542063 298284.538365913 -124769.475480951
 -1157877.34323361 483856.312052400 -129431.673991641
 -1069743.11148960 658065.963517417 -118946.601462165
 -958028.700401156 815243.839169254 -95435.4379840218
 -827628.382456726 950083.054069948 -62632.9133933366
 -687417.391842558 1057520.02842180 -25654.4303791947
 -553760.390142736 1133498.57496020 8935.42338797758
 -457465.223240207 1175258.88873766 32272.9745739897
 -871694.103054049 -905037.143792320 112279.071852192
 -958017.130652214 -813342.727649848 110572.219273004
 -1057059.74918215 -681592.861319392 98006.5761893682
 -1141655.11079462 -531859.070253325 72794.0128357873
 -1203697.92157876 -375761.108200831 38266.6182148472
 -1242620.78586648 -217812.952472973 -728.825446621961
 -1259592.44597752 -58616.0109316124 -39248.7479772928
 -1255320.25643122 102151.813665761 -72701.3870377311
 -1229801.42427020 263974.430540392 -97238.8183948463
 -1182613.72109623 425242.102920205 -110196.966827097
 -1112983.47238946 583654.792251458 -110291.906270367
 -1019937.58942698 736036.821272119 -97604.0077274800
 -903523.502714464 877361.191937609 -73702.4412306446
 -767921.519408835 1000037.96952809 -42071.7298184913
 -626851.528657144 1094773.36081003 -8824.98724444613
 -513350.313428495 1152288.55312218 15873.7823284395
 535355.505925613 -1141227.00077823 50446.4655729273
 652726.363829172 -1079238.87658531 27224.4770047406
 797162.035126211 -977762.275188013 -7940.64805620304
 932721.998990206 -848285.355608339 -44621.2839248343
 1045581.28513311 -701897.564996451 -75159.9318148288
 1132799.95442874 -547094.182882698 -94877.0215653626
 1195788.35067357 -389017.664256960 -101513.093778070
 1236730.07899527 -230439.871949530 -94581.2245807935
 1257219.86126832 -72922.8750493376 -75032.6971789858
 1258032.71900923 82846.4501057939 -45161.6488413622
 1239023.88615540 237273.547915138 -8396.66094930764
 1198893.75197980 391452.720683272 31112.2138785382
 1135539.20633423 545302.339184614 68887.5945042027
 1048473.22127039 694367.778458645 100532.200991755
 945368.267851890 826308.555854650 122647.623617721
 855085.777861308 917803.125346532 134220.589040632
 477237.470891581 -1166581.86672122 53670.9934061554
 577565.846342985 -1121156.03688886 31245.2397130627
 715670.247261770 -1038912.14527663 -5204.08492924786
 857543.571755673 -924111.539626654 -46758.0558656176
 985837.359135492 -782534.635011777 -85520.0400999475
 1092245.26705432 -620710.523239183 -115187.472654459
 1173225.12428641 -444817.857523163 -131260.474974696
 1227358.81436421 -260642.647371426 -131168.525541231
 1254171.36570809 -73883.5550912426 -114650.933899137
 1253897.14182326 110485.131460721 -84169.0226420905
 1227091.27677356 289504.677269992 -44536.1788212235