# OOMMF OVF 2.0
#
# Segment count: 1
#
# Begin: Segment
# Begin: Header
#
# Title: Oxs_MinDriver::Magnetization
# Desc: Oxs vector field output
# Desc:  MIF source file: C:/Users/grl31/Documents/GitHub/phd-work/Skyrmions/stdprob3/drive-242/stdprob3.mif
# Desc:  Iteration: 1959, State id: 4383
# Desc:  Stage: 0, Stage iteration: 1959
# Desc:  Stage simulation time: -1 s
# Desc:  Total simulation time: -2 s
# meshunit: m
# meshtype: rectangular
# xbase: 3.1249999999999999e-09
# ybase: 3.1249999999999999e-09
# zbase: 3.1249999999999999e-09
# xnodes: 16
# ynodes: 16
# znodes: 16
# xstepsize: 6.2499999999999997e-09
# ystepsize: 6.2499999999999997e-09
# zstepsize: 6.2499999999999997e-09
# xmin: 0
# ymin: 0
# zmin: 0
# xmax: 9.9999999999999995e-08
# ymax: 9.9999999999999995e-08
# zmax: 9.9999999999999995e-08
# valuedim: 3
# valuelabels: Magnetization_x Magnetization_y Magnetization_z
# valueunits: A/m A/m A/m
#
# End: Header
#
# Begin: Data Text
 432070.684539532 -1141747.15024058 -318241.731075623
 511544.373948867 -1104461.46829063 -331717.725576310
 624577.591379326 -1039109.01736423 -348862.026162343
 749717.981775780 -946537.392830214 -365430.352728377
 873237.957845194 -828080.447532919 -378533.581483850
 985649.904280924 -686486.358180728 -385720.335400819
 1080173.31387573 -525896.511860363 -384977.793804766
 1151958.70400934 -351839.886970767 -375165.655560939
 1197949.46123769 -171050.517517762 -356662.641295919
 1217107.49986395 9245.80221831590 -331833.210868366
 1210507.99274584 182373.881968002 -304892.764088146
 1181097.92938871 342819.546914767 -281126.075570759
 1133493.51583637 485891.245314525 -265803.645954241
 1074393.46533003 606663.755413769 -263034.599325530
 1013902.42319599 698830.208333367 -274203.659853409
 967968.759490219 753706.053052779 -294131.088396860
 399798.235296182 -1162363.52608718 -283939.844324816
 471766.986202669 -1131113.46367369 -299278.589184564
 580249.831672258 -1072957.77077383 -321902.447799520
 705233.588594061 -986717.268971030 -347252.138297302
 833251.413390294 -871257.121575950 -371688.769140556
 953861.338590611 -726978.833823104 -391407.400076034
 1058122.03030807 -556707.723606109 -402496.845171478
 1138330.11750240 -366497.551055513 -401787.903720665
 1188856.19409807 -165666.149720975 -388233.315816948
 1207408.19487922 34761.6849764157 -364014.432564237
 1195519.99661182 224680.246403865 -334365.302470414
 1157797.97280391 396704.929478113 -306069.410457630
 1100842.53364405 545997.406170625 -285625.593205585
 1033039.37484169 668731.914633204 -277806.960489924
 965720.768140108 760353.273750416 -284245.893547929
 916121.070072410 813770.769092381 -300081.241098358
 341890.436314279 -1188095.85610836 -251174.435749212
 405156.705237976 -1164065.66242556 -268976.966823181
 505725.557447178 -1116370.81048874 -299177.714665386
 628155.683584485 -1040635.44372438 -337709.551780847
 760869.240666974 -931680.328295811 -380262.008873392
 892979.893220525 -785429.809693152 -420994.483655301
 1012554.21647291 -601361.113491835 -452380.592865956
 1106853.84012860 -385496.189249558 -466708.362455183
 1165121.07565469 -151757.569841444 -459360.370493614
 1182521.82877283 81146.9956959671 -431980.000097500
 1161791.59151648 296322.231136413 -392406.503685772
 1111122.16408406 483360.870936806 -351168.386742489
 1040911.15766516 638073.528674690 -317672.102602302
 962316.115835306 759334.693572451 -298174.357146677
 888230.818545631 845943.139262061 -294916.342443345
 836273.920057258 894296.923343608 -304020.352031205
 264882.348083029 -1211915.34895108 -229451.431832028
 318779.737685541 -1194719.13299219 -250150.160948349
 408444.711910118 -1158116.39051445 -288944.240734086
 524095.802472318 -1095005.96865015 -343270.956199920
 657895.861928323 -995683.939058133 -409067.181864083
 800255.772299645 -849750.551881229 -478606.445211093
 936870.955145470 -650475.273897755 -539169.882663534
 1048518.10713345 -402073.536590583 -574887.885683624
 1116519.90341870 -125088.558329549 -573834.112582962
 1132042.76091648 148885.773477181 -536527.394297487
 1100301.67631468 392264.096465019 -476460.418757458
 1035392.28350103 591660.119471419 -411643.721211119
 952827.721677824 746024.941427503 -356532.678010433
 866418.024811263 859563.893791315 -319404.367051261
 789425.100337116 936264.922331542 -302928.105477522
 737843.375621130 977138.984079309 -303868.375721175
 174158.949620833 -1229888.04306556 -220439.317523631
 217489.048521392 -1218461.46806622 -244130.283926672
 292698.712261971 -1191918.87475815 -291901.166072371
 395441.108937571 -1141497.95735175 -363535.656632148
 522695.691576065 -1053507.87720888 -456573.978217786
 668353.248067069 -910216.061241812 -562458.966125170
 818013.505209036 -695615.132844863 -662210.633538758
 946345.104580019 -409251.925682642 -726975.402115805
 1024707.77627849 -80433.1898722878 -731473.790453439
 1038900.95530443 239519.142653911 -674436.665884080
 997913.666064749 508553.078492443 -580595.825300203
 923224.309638919 712672.087940985 -480941.576577167
 835116.011067767 858259.502954886 -396889.536980818
 748431.214259200 957601.709120373 -338229.382418493
 674935.562855726 1020692.31863716 -306917.916692193
 627457.828978330 1052740.95003182 -299303.518019529
 73317.3341737759 -1239627.76735643 -222479.207629648
 104439.442970602 -1232367.00357391 -248824.038575880
 160974.016552984 -1213493.63588361 -305073.749417613
 242976.293622734 -1173595.25508083 -393936.706728486
 352071.175029444 -1096095.43967726 -515916.762424972
 487176.163574428 -956101.863629468 -663383.782533245
 637365.586558168 -726220.930141443 -811121.261350492
 775016.956036974 -398363.834531956 -912252.379613850
 862776.424727426 -12829.8159355409 -920326.935211925
 880432.798519063 352095.541118003 -832115.525714829
 839981.362731676 638323.888842659 -691753.824792588
 768359.298983588 836512.843724634 -549017.013277484
 687767.207350419 965110.048938824 -432537.042170562
 611786.124839227 1045734.98058775 -351717.953406266
 549477.336590391 1093581.52134622 -306110.345566054
 510124.039755701 1116646.84211443 -290555.889594670
 -35314.6059129946 -1239453.01047615 -232504.934033183
 -18112.9403885083 -1234225.77116813 -260591.822768607
 15459.7000848216 -1219293.87053171 -323470.069521179
 68321.9700955706 -1185213.53571452 -426790.831766914
 145241.786523614 -1113667.04740182 -574630.282788580
 250031.353789128 -974016.332429389 -761791.268788328
 378751.338155936 -728011.505106061 -958173.315844920
 509522.742743772 -359360.572862577 -1096720.55885613
 604141.489102248 78787.4893131930 -1104696.80165736
 637206.806385618 478188.068998025 -978188.676832202
 617507.256423409 768375.464173023 -787294.967112250
 569913.918917931 950760.366166161 -602330.708224433
 514033.226974151 1057681.74051011 -456758.807552745
 460891.978931232 1118675.80476720 -357340.815614833
 417222.174423229 1152118.63659991 -300162.847947048
 389578.071569525 1167218.80254844 -278170.135076560
 -149932.253598949 -1228011.86981348 -247096.333131244
 -147906.455514379 -1222232.80683956 -275354.457420270
 -140472.179431817 -1206354.37325930 -341359.229907135
 -123317.741449540 -1171013.35854340 -452846.419523930
 -90594.9189592508 -1096969.48757823 -616441.347493881
 -35299.5438689656 -950303.680001953 -828991.127151758
 47357.6271982452 -686527.796503590 -1057348.69872386
 150610.001014737 -286019.293087077 -1219450.29521308
 248661.894507335 185400.015389037 -1222842.39680865
 313222.394331218 598143.510970577 -1065676.07784550
 338707.381456563 878907.096288783 -839255.060609712
 337183.948403684 1041385.92936973 -627193.560209770
 321833.016129545 1128096.49270015 -464081.074603927
 301508.830060804 1172838.61234741 -353682.690700763
 282098.535834362 1195072.15877461 -289434.590746960
 268712.302195873 1204202.80759161 -263132.528882365
 -268712.405885092 -1204202.83278666 -263132.307691374
 -282098.665704857 -1195072.18423950 -289434.359023804
 -301508.998716711 -1172838.64868156 -353682.426437361
 -321833.236686523 -1128096.56022104 -464080.757519943
 -337184.242049088 -1041386.06639444 -627193.174829134
 -338707.768820235 -878907.363182482 -839254.624773310
 -313222.901118483 -598143.965799169 -1065675.67360427
 -248662.508243865 -185400.641589413 -1222842.17706581
 -150610.644373956 286018.659285911 -1219450.36441034
 -47358.2050050399 686527.321942874 -1057348.98097251
 35299.0769533319 950303.393413813 -828991.475560146
 90594.5569661405 1096969.33322248 -616441.675372856
 123317.471735385 1171013.27882115 -452846.699124858
 140471.976775028 1206354.32882004 -341359.470349100
 147906.297657588 1222232.77749432 -275354.672469348
 149932.127530728 1228011.84378295 -247096.538992085
 -389578.149578024 -1167218.83285726 -278169.898647682
 -417222.271691276 -1152118.66643809 -300162.598217430
 -460892.104511570 -1118675.84506991 -357340.527473404
 -514033.384757663 -1057681.81183613 -456758.464819843
 -569914.127675772 -950760.505173900 -602330.291282107
 -617507.534029408 -768375.726954186 -787294.492908149
 -637207.185012219 -478188.508503850 -978188.215336200
 -604141.985623392 -78788.0853134258 -1104696.48761034
 -509523.316434107 359359.958915144 -1096720.49349752
 -378751.902652879 728011.021070723 -958173.460473280
 -250031.839901242 974016.019196383 -761791.509734379
 -145242.178163422 1113666.86344305 -574630.540321530
 -68322.2712584250 1185213.43332554 -426791.067893574
 -15459.9287262596 1219293.81012622 -323470.286287027
 18112.7628710598 1234225.73160508 -260592.022487343
 35314.4628945093 1239452.97847245 -232505.126363284
 -510124.087718145 -1116646.88736353 -290555.631489098
 -549477.398443883 -1093581.56560793 -306110.076411726
 -611786.205496329 -1045735.03662708 -351717.646492060
 -687767.305690999 -965110.138346475 -432536.686308045
 -768359.428391467 -836512.999347308 -549016.595053248
 -839981.540064938 -638324.154326699 -691753.364482020
 -880433.052871856 -352095.957131437 -832115.080563617
 -862776.784934328 12829.2735452205 -920326.605090627
 -775017.409611827 398363.271235041 -912252.240254001
 -637366.071114465 726220.460880701 -811121.300737002
 -487176.613834051 956101.533380139 -663383.927842911
 -352071.559625046 1096095.22640316 -515916.953082898
 -242976.602203011 1173595.12545589 -393936.902570711
 -160974.257405155 1213493.55563981 -305073.941516567
 -104439.634368330 1232366.95033947 -248824.221897645
 -73317.4893406078 1239627.72581978 -222479.387932083
 -627457.851250752 -1052741.01714384 -299303.235274368
 -674935.593151990 -1020692.38647638 -306917.624460810
 -748431.256616100 -957601.789013203 -338229.062497168
 -835116.063836232 -858259.615489184 -396889.182596340
 -923224.382238644 -712672.260109624 -480941.182089108
 -997913.771777648 -508553.344827511 -580595.410316179
 -1038901.12203237 -239519.526620600 -674436.272694668
 -1024708.02900635 80432.7140787821 -731473.488729976
 -946345.445292396 409251.428393309 -726975.238540712
 -818013.894450365 695614.697324493 -662210.610207398
 -668353.635755885 910215.729340365 -562459.042555304
 -522696.046484079 1053507.64313878 -456574.112009256
 -395441.410776082 1141497.80215902 -363535.815606242
 -292698.959873442 1191918.77297444 -291901.333397201
 -217489.250520861 1218461.39831967 -244130.452077797
 -174159.118208103 1229887.98914894 -220439.485145252
 -737843.378109192 -977139.079304460 -303868.063467357
 -789425.106486199 -936265.019757577 -302927.788336677
 -866418.040480330 -859564.000830785 -319404.036488198
 -952827.743840842 -746025.079071717 -356532.330767018
 -1035392.32135980 -591660.306303174 -411643.357450795
 -1100301.74139963 -392264.355648646 -476460.055072242
 -1132042.87343326 -148886.117942662 -536527.061304343
 -1116520.08486397 125088.146877388 -573833.849232595
 -1048518.36235769 402073.105688498 -574887.721559361
 -936871.260215746 650474.882588288 -539169.824658674
 -800256.095766865 849750.231478831 -478606.473220539
 -657896.177762076 995683.693415796 -409067.271815875
 -524096.088718225 1095005.79200045 -343271.082665978
 -408444.957510665 1158116.26758784 -288944.386260531
 -318779.948209655 1194719.04450023 -250150.315304327
 -264882.527317920 1211915.27991307 -229451.589564906
 -836273.908632331 -894297.049980509 -304020.010946510
 -888230.810824960 -845943.266380447 -294916.001067707
 -962316.115988112 -759334.826871377 -298174.017192520
 -1040911.16580587 -638073.686250652 -317671.759421785
 -1111122.18524970 -483361.067316075 -351168.049469115
 -1161791.63652854 -296322.480327734 -392406.182244500
 -1182521.91190438 -81147.3034068296 -431979.714726000
 -1165121.21232205 151757.216296477 -459360.140650125
 -1106854.03433177 385495.818990496 -466708.207709357
 -1012554.45733805 601360.763771788 -452380.518634046
 -892980.160315917 785429.506871457 -420994.482074021
 -760869.516772248 931680.079202862 -380262.066714875
 -628155.948401863 1040635.25168339 -337709.650972795
 -505725.798110771 1116370.66739299 -299177.841807696
 -405156.921669824 1164065.55458024 -268977.107542208
 -341890.627951255 1188095.76989441 -251174.582705069
 -916121.052054633 -813770.925022751 -300080.873247335
 -965720.753455981 -760353.427809044 -284245.531332338
 -1033039.36906970 -668732.069143637 -277806.610018380
 -1100842.53763468 -545997.575635360 -285625.253878753
 -1157797.99011449 -396705.126831465 -306069.089179935
 -1195520.03447859 -224680.483657682 -334365.007652755
 -1207408.26519226 -34761.9620968655 -364014.172877296
 -1188856.30521285 165665.841149997 -388233.107231560
 -1138330.27355947 366497.229330239 -401787.755052626
 -1058122.22634708 556707.410466994 -402496.762919130
 -953861.563782697 726978.549345703 -391407.379654752
 -833251.655474111 871256.875779030 -371688.802597512
 -705233.835067710 986717.065759280 -347252.215160740
 -580250.071531685 1072957.60830582 -321902.556971951
 -471767.211231554 1131113.33556106 -299278.718658189
 -399798.448085157 1162363.41875645 -283939.984088998
 -967968.740387621 -753706.229206249 -294130.699871763
 -1013902.40669958 -698830.380038196 -274203.283246982
 -1074393.45930149 -606663.922524780 -263034.238524131
 -1133493.52007713 -485891.422294786 -265803.304348268
 -1181097.94704326 -342819.745466825 -281125.759273674
 -1210508.03047876 -182374.110556233 -304892.477546122
 -1217107.56594818 -9246.06277440747 -331832.961222700
 -1197949.56169817 171050.235923588 -356662.438920325
 -1151958.84097489 351839.594079079 -375165.509684729
 -1080173.48608099 525896.221826294 -384977.706829141
 -985650.105598675 686486.086262217 -385720.304911031
 -873238.179460954 828080.206606923 -378533.597288943
 -749718.216485673 946537.183987059 -365430.412142097
 -624577.829606596 1039108.84228024 -348862.121156611
 -511544.608221188 1104461.32254236 -331717.849575156
 -432070.911140284 1141747.02705931 -318241.865358082
 449243.956259134 -1134204.41218141 -321418.185658196
 531266.937303039 -1094810.56380973 -332708.132780419
 646563.138658621 -1025420.50285575 -349311.223652967
 771999.900660653 -928010.809445283 -366553.572962542
 893506.325811186 -805031.062095665 -380947.326694223
 1001917.43904095 -660166.401836572 -389732.213385964
 1091173.17040685 -498172.836084943 -390786.858134063
 1157340.58463087 -324753.578357935 -382945.577633344
 1198239.77392370 -146335.343271370 -366547.189889500
 1213420.80946189 30546.2261985323 -343840.512663679
 1204102.04821134 200061.999591700 -318846.177225903
 1172941.17781938 357467.654888833 -296606.304725503
 1123979.93279231 498639.852081443 -282093.671526561
 1063284.51655788 619000.652341967 -278950.999581395
 1000661.50774731 712356.783082488 -287704.347252877
 952938.798878936 769496.587500601 -302211.975829969
 415699.260633136 -1154635.64521838 -292506.551070483
 488991.463611698 -1121781.64418321 -306663.858658719
 599195.922048081 -1060223.56610315 -329301.788333163
 724500.863703245 -969645.245688231 -355578.439906607
 850838.584098776 -849840.413147988 -381306.185247761
 967825.633924513 -702128.997829131 -402340.457380349
 1067061.90262715 -530102.713346014 -414631.692208730
 1141750.07341896 -340191.353640137 -415001.257438145
 1187261.56039226 -141500.299250671 -402414.069642036
 1202006.33743078 55689.0675848343 -378984.067536792
 1187658.55946100 242206.239364151 -349789.529104371
 1148449.18360678 411451.156575740 -321437.162357376
 1090325.21126508 559105.063236752 -300236.394965256
 1020995.18051433 681661.032112122 -290614.021659826
 951452.032597667 774717.857362366 -293429.211341658
 899896.952209626 830622.432438610 -302987.262195207
 356748.202773558 -1181388.11359055 -261920.361567689
 420602.895180838 -1156098.55024060 -279425.799839668
 522463.636307244 -1105505.18482051 -310547.043119931
 645285.639022834 -1025702.77251628 -350841.413522208
 776626.220101755 -912179.360197639 -395385.836871833
 905270.334201664 -761783.984797862 -437858.668338143
 1019560.41146985 -575072.564870416 -470465.241453330
 1107737.80569971 -358863.217294127 -485472.528590304
 1160421.82167539 -127031.242403145 -478365.644828352
 1173801.81292299 102662.793273652 -450776.092727762
 1150746.58803919 314516.793539371 -410378.980476390
 1098860.11774831 498941.983344657 -367576.889639724
 1027718.69376204 652138.353652656 -331751.842656819
 947757.057853848 773177.138956883 -309035.761687253
 871545.900474124 860972.527075434 -301136.981965091
 817687.436891585 911451.683770556 -303632.202871242
 279469.267101149 -1206527.69162994 -240285.848511797
 333670.302248584 -1188200.90064324 -261518.985977852
 424413.616746329 -1148949.91214474 -302219.476906859
 540509.231630154 -1081778.35168650 -359381.133706230
 673020.545949488 -977357.131095095 -428212.346793470
 811573.889927527 -826224.448060236 -500250.350858862
 941804.351091070 -623220.923459974 -562271.887743446
 1045706.19933032 -374069.638744183 -598431.183153829
 1106808.00915761 -99430.0221020031 -597192.709674460
 1117933.45865342 170684.729050822 -559143.037344642
 1084282.06564146 410458.033273022 -497399.272183707
 1018849.68572180 607272.982403818 -429783.984887648
 936014.992920303 760137.602489850 -370966.560795367
 848810.409758831 873234.276658117 -329442.282157852
 770177.959498064 950643.489202262 -307656.136067040
 716958.691473127 993122.558516628 -302038.489940409
 189304.612284561 -1225851.57435761 -230219.704481853
 232859.687792240 -1213325.75208299 -255277.135780909
 309092.283631756 -1184246.55213692 -305894.581302264
 412364.489099738 -1129620.26116325 -381396.151813213
 538293.368544614 -1035802.76007885 -478437.375748269
 679411.928847573 -886004.591467635 -587319.951778282
 820748.306201190 -666551.082182282 -688208.764568179
 938571.250000967 -379715.031409434 -752628.683025241
 1007964.97974799 -54981.4369247010 -756659.151873733
 1017482.70921016 259514.441886965 -699235.741241397
 975604.876350814 524543.104455117 -603820.410161875
 901718.739342627 726422.849214734 -500762.009517540
 814513.248009782 870835.725574565 -412022.740632760
 728018.656880108 969715.821209088 -348122.812022170
 653687.152891278 1033161.60212656 -311158.546331496
 604999.062976641 1066366.34175322 -297301.849796103
 89710.0172293369 -1237067.92430845 -230574.270843148
 121049.670169774 -1228722.99649984 -259106.553647716
 178661.445348631 -1207417.63617337 -319017.508488796
 261421.876202393 -1163190.90164057 -412546.918425507
 369355.590752976 -1079135.44028125 -539066.396678066
 499375.341339406 -931264.888572836 -689143.966593722
 639172.837493389 -695596.413217558 -836153.780502410
 762926.638201131 -368713.438863362 -934635.102937841
 839061.741035823 9146.63085682585 -942040.957067609
 851749.240129230 366197.128984217 -855553.812207011
 811695.465761797 648613.442299454 -715542.105154649
 742424.938219795 845903.494654104 -569913.958207959
 664063.089693129 974432.707648566 -448386.598919786
 589380.090043575 1055092.35778563 -361884.866941891
 527135.655752225 1103279.31769431 -310567.510376739
 487060.024528453 1127229.02508432 -289269.231742230
 -17228.0669923588 -1238681.71228160 -238579.630911311
 188.168558744935 -1232413.00643729 -269643.425797361
 34959.6583018988 -1215264.87752656 -336836.059026839
 89039.0982273177 -1176993.21937268 -445318.348439139
 165566.570275624 -1098587.19170326 -597698.355319524
 265944.023635650 -950233.361921459 -786053.283882763
 383894.862972552 -698297.747054804 -978036.002180096
 498642.887653296 -333529.109343257 -1109803.15134371
 578965.176994547 91889.2776794188 -1117096.73502082
 605697.544347770 481225.137293274 -996545.173550655
 586354.887407971 769304.914974891 -809881.055913283
 541645.847646734 953541.498086338 -623640.776467725
 488722.722542305 1062414.51731152 -473259.891386869
 437666.584335335 1124505.76081618 -368081.765055550
 394799.442081097 1158636.19815418 -305360.429293365
 366865.365564176 1174539.20166989 -278238.922886567
 -130006.927661892 -1229483.94908187 -251031.568988701
 -127817.169269518 -1222747.98437571 -283018.672288614
 -119086.915620118 -1205055.99104194 -353847.136346987
 -100110.917561155 -1166149.18762286 -470768.847005154
 -66345.2081821788 -1085917.75321466 -638694.275474147
 -12967.5271585831 -931250.048532881 -850972.750013684
 61930.6729326653 -663081.773089416 -1071464.69137609
 150679.498948510 -270186.124728395 -1223047.25073066
 232706.583988333 184399.503432972 -1226129.64233849
 287246.755382429 586934.165189910 -1079141.79706563
 309954.862807420 868856.178953156 -860561.650456206
 309672.892519106 1036697.08021463 -648776.767796341
 296799.790287365 1127762.98220470 -481258.736412235
 278712.269342183 1174935.88951872 -365232.196496886
 260513.312215464 1198420.75125892 -295753.187691152
 247136.388652067 1208406.51719791 -265003.255671661
 -247136.493400238 -1208406.54705292 -265003.021847735
 -260513.440768281 -1198420.78455019 -295752.939556201
 -278712.433936499 -1174935.93737506 -365231.916941461
 -296800.005192106 -1127763.06712614 -481258.404875353
 -309673.176796978 -1036697.23977466 -648776.377140091
 -309955.230963595 -868856.470419835 -860561.223578453
 -287247.222594754 -586934.634854635 -1079141.41725661
 -232707.137028812 -184400.124496346 -1226129.44397422
 -150680.076656261 270185.496873869 -1223047.31825749
 -61931.1991055446 663081.287274608 -1071464.96161216
 12967.0902335469 931249.737973995 -850973.096527260
 66344.8645000404 1085917.57648047 -638694.611660538
 100110.654686644 1166149.09124568 -470769.141643795
 119086.717155715 1205055.93552496 -353847.392207568
 127817.015756683 1222747.94691681 -283018.903454773
 130006.802647592 1229483.91764343 -251031.787709182
 -366865.443123289 -1174539.23709521 -278238.671080634
 -394799.536375928 -1158636.23653812 -305360.161738701
 -437666.707790596 -1124505.81154554 -368081.463280887
 -488722.879890110 -1062414.60368466 -473259.535000027
 -541646.052894644 -953541.656997506 -623640.355231328
 -586355.157365446 -769305.196531248 -809880.593013510
 -605697.903196322 -481225.585065592 -996544.739216866
 -578965.634277718 -91889.8673740903 -1117096.44951469
 -498643.408971344 333528.504755291 -1109803.09880811
 -383895.376494226 698297.257700744 -978036.150003123
 -265944.477653376 950233.031092680 -786053.530203284
 -165566.941759933 1098586.99047147 -597698.622285557
 -89039.3868474156 1176993.10188888 -445318.601244968
 -34959.8780327802 1215264.80716082 -336836.290092493
 -188.340982720718 1232412.95956423 -269643.639911564
 17227.9296911595 1238681.67479456 -238579.835454830
 -487060.073861760 -1127229.07398901 -289268.958104078
 -527135.717001326 -1103279.36948513 -310567.222431717
 -589380.170636045 -1055092.42266352 -361884.546531064
 -664063.191002709 -974432.807340049 -448386.232230254
 -742425.070346679 -845903.662536238 -569913.536904906
 -811695.642041147 -648613.720301504 -715541.653187993
 -851749.488835579 -366197.547530830 -855553.385458610
 -839062.080004996 -9147.16367966051 -942040.649979214
 -762927.057997396 368712.884860445 -934634.978819154
 -639173.285812662 695595.943297940 -836153.828724026
 -499375.763940620 931264.546069692 -689144.123200138
 -369355.955885699 1079135.21499110 -539066.597496844
 -261422.173954271 1163190.75922960 -412547.131279386
 -178661.679399595 1207417.54731817 -319017.713710749
 -121049.853153102 1228722.93643658 -259106.752990415
 -89710.1670891895 1237067.87751079 -230574.463613675
 -604999.087106093 -1066366.41169773 -297301.549815418
 -653687.184629918 -1033161.67558610 -311158.235741392
 -728018.700789335 -969715.907574028 -348122.479621529
 -814513.305074321 -870835.844917280 -412022.375585437
 -901718.815779660 -726423.028940737 -500761.611160886
 -975604.986584539 -524543.373358670 -603819.998456362
 -1017482.87438901 -259514.822083341 -699235.359777435
 -1007965.22162232 54980.9713602149 -756658.863496038
 -938571.569058546 379714.543642926 -752628.531229037
 -820748.669553548 666550.647341914 -688208.752395020
 -679412.295909302 886004.251318534 -587320.040294632
 -538293.707829707 1035802.51602148 -478437.522392912
 -412364.779440577 1129620.09633636 -381396.326082083
 -309092.522518070 1184246.44264082 -305894.763824007
 -232859.883404211 1213325.67557329 -255277.320995314
 -189304.773623045 1225851.51494000 -230219.888197764
 -716958.696092938 -993122.655753613 -302038.159252366
 -770177.971074693 -950643.588516227 -307655.800210582
 -848810.428209497 -873234.387886720 -329441.939791929
 -936015.020598430 -760137.743215415 -370966.202601328
 -1018849.72815929 -607273.172491329 -429783.615696322
 -1084282.13334988 -410458.293474379 -497398.909865407
 -1117933.57047595 -170685.067257225 -559142.710528583
 -1106808.18307248 99429.6214861493 -597192.454049672
 -1045706.43786413 374069.216708671 -598431.030144187
 -941804.638293028 623220.532950245 -562271.839520624
 -811574.195311285 826224.123146888 -500250.392057767
 -673020.845561063 977356.879285054 -428212.450628663
 -540509.504869253 1081778.16791879 -359381.275916298
 -424413.854737040 1148949.78118944 -302219.640544646
 -333670.504597637 1188200.80552750 -261519.159956420
 -279469.441549763 1206527.61572528 -240286.026749565
 -817687.428381777 -911451.811903285 -303631.841155647
 -871545.896949080 -860972.655962678 -301136.623668975
 -947757.063411924 -773177.274124431 -309035.406465466
 -1027718.70634106 -652138.512105696 -331751.492210918
 -1098860.14454565 -498942.176384286 -367576.547501312
 -1150746.63565782 -314517.038914193 -410378.658891776
 -1173801.89571278 -102663.093574452 -450775.808753941
 -1160421.95180036 127030.897662582 -478365.420717096
 -1107737.98820359 358862.854325985 -485472.380465282
 -1019560.63657544 575072.219168222 -470465.176188175
 -905270.586037430 761783.679614563 -437858.678625076
 -776626.481380169 912179.106808153 -395385.908247490
 -645285.892695969 1025702.57285756 -350841.530665759
 -522463.869067890 1105505.03407363 -310547.188162173
 -420603.103862773 1156098.43456684 -279425.964312655
 -356748.391813596 1181388.01858022 -261920.532628650
 -899896.939321750 -830622.588849954 -302986.871680114
 -951452.024444461 -774718.010696325 -293428.832942880
 -1020995.18000665 -681661.188230569 -290613.657253468
 -1090325.22076946 -559105.231611236 -300236.046899637
 -1148449.20599771 -411451.349221160 -321436.835764454
 -1187658.59986184 -242206.468999243 -349789.232921903
 -1202006.40527657 -55689.3355068056 -378983.812983945
 -1187261.66494050 141499.999585697 -402413.866558927
 -1141750.21885822 340191.036881237 -415001.116964567
 -1067062.08488049 530102.403923257 -414631.618770489
 -967825.844737818 702128.712213084 -402340.448702935
 -850838.813239202 849840.162126115 -381306.233416289
 -724501.100798335 969645.034683183 -355578.532219260
 -599196.151300920 1060223.39611265 -329301.918488900
 -488991.682888975 1121781.50656209 -306664.012429975
 -415699.466629121 1154635.52926903 -292506.716013223
 -952938.787273498 -769496.763359978 -302211.564648320
 -1000661.50007068 -712356.953497208 -287703.952005226
 -1063284.51728393 -619000.818330282 -278950.628480531
 -1123979.94333099 -498640.024298684 -282093.325117815
 -1172941.20030451 -357467.844829575 -296605.986891829
 -1204102.08664262 -200062.219384935 -318845.894181847
 -1213420.87184242 -30546.4740986355 -343840.270498196
 -1198239.86647572 146335.070108206 -366546.996391506
 -1157340.71041910 324753.291139018 -382945.441048636
 -1091173.32831288 498172.550377752 -390786.781439271
 -1001917.62642744 660166.129001338 -389732.193810501
 -893506.535025749 805030.814659664 -380947.358874729
 -772000.124663649 928010.592310947 -366553.650912046
 -646563.368520752 1025420.31828710 -349311.339996347
 -531267.165538385 1094810.40824213 -332708.280246324
 -449244.177779230 1134204.27800712 -321418.349508478
 478624.548352963 -1120926.66051277 -325563.195684888
 561775.282912096 -1078532.59833900 -335746.030130098
 677744.311181302 -1004115.40613273 -352085.686654868
 801848.328935531 -900859.661803442 -370189.894564452
 919525.789930562 -772547.893247812 -386253.162071066
 1021994.85141980 -623945.109941679 -397200.773375686
 1104080.90476987 -460413.311947762 -400717.317847368
 1162904.58739151 -287698.838079077 -395514.513147988
 1197205.07086104 -111740.468869256 -381789.885723097
 1207065.30634472 61768.9823879117 -361562.401187720
 1193734.15713117 227919.674303359 -338527.421463505
 1159469.39835175 382717.548459039 -317344.329248673
 1107699.87812761 522499.612192781 -302563.325889671
 1043984.33266976 642822.519148121 -297364.007464076
 978178.578708225 737238.556232279 -301985.778274169
 928146.469357410 795674.901588186 -311440.224314327
 443285.321758735 -1142043.94912651 -301302.460487342
 517522.290185002 -1106463.65225108 -315370.094219191
 628503.299526462 -1040128.30749320 -338623.887749586
 752867.131631144 -943672.732051394 -366363.600554293
 875781.943051880 -818101.208999951 -394037.854750079
 986948.809826668 -665942.286213274 -417135.888091297
 1078730.87797466 -491706.529585042 -431409.101186353
 1145521.00682243 -302156.281244333 -433627.300284564
 1183903.78774635 -105976.082248878 -422717.780877490
 1193056.05784973 87560.0373564571 -400624.404654968