# OOMMF OVF 2.0
#
# Segment count: 1
#
# Begin: Segment
# Begin: Header
#
# Title: Oxs_MinDriver::Magnetization
# Desc: Oxs vector field output
# Desc:  MIF source file: C:/Users/grl31/Documents/GitHub/phd-work/Skyrmions/stdprob3/drive-86/stdprob3.mif
# Desc:  Iteration: 539, State id: 1143
# Desc:  Stage: 0, Stage iteration: 539
# Desc:  Stage simulation time: -1 s
# Desc:  Total simulation time: -2 s
# meshunit: m
# meshtype: rectangular
# xbase: 3.1249999999999999e-09
# ybase: 3.1249999999999999e-09
# zbase: 3.1249999999999999e-09
# xnodes: 16
# ynodes: 16
# znodes: 16
# xstepsize: 6.2499999999999997e-09
# ystepsize: 6.2499999999999997e-09
# zstepsize: 6.2499999999999997e-09
# xmin: 0
# ymin: 0
# zmin: 0
# xmax: 9.9999999999999995e-08
# ymax: 9.9999999999999995e-08
# zmax: 9.9999999999999995e-08
# valuedim: 3
# valuelabels: Magnetization_x Magnetization_y Magnetization_z
# valueunits: A/m A/m A/m
#
# End: Header
#
# Begin: Data Text
 501892.130478134 -1157377.08175985 -11489.5996508814
 608587.494344050 -1104335.11815620 -40182.5764968177
 744483.891822568 -1015911.12513327 -72234.0056076988
 879033.577101193 -899394.272236088 -99696.2602937107
 997994.329435778 -762601.913634430 -118300.763539760
 1095832.06512551 -612337.000185711 -125478.739893587
 1171116.18865470 -453456.494899112 -120056.281899960
 1223665.89950140 -289403.373137896 -102161.073471261
 1253408.45642001 -123069.550574165 -73284.0911469768
 1260305.16979377 43108.4145336270 -36358.9673457578
 1244345.00043484 207689.960208588 4453.22807948498
 1205248.24657480 370093.902287331 44233.4549526607
 1142705.59193236 528907.880928760 77651.8807043435
 1058568.76961840 679069.443345791 99228.4335338568
 962249.072593671 809147.491102284 104434.146017730
 880170.893860111 898861.689752587 94320.1527541807
 447938.719962906 -1179196.96282775 19871.0073917749
 538962.615276230 -1140625.59910346 -6478.65135991094
 667456.942643655 -1069781.86737866 -40217.1215225548
 805433.288892152 -968169.022400294 -73995.8926413038
 936852.083806888 -838631.933037473 -102733.075859125
 1052227.22107273 -685161.009402176 -122154.399624039
 1145620.36285133 -512321.462922004 -128957.875947144
 1212792.31948393 -325540.802910293 -121274.095998593
 1250742.74861805 -131577.545840557 -99394.9552486774
 1258269.22934328 62432.2530562773 -66409.2703253287
 1235996.89103131 251175.806633789 -27781.8365439300
 1185327.87080798 431794.499212962 10038.9269442415
 1108083.09881504 601697.640289206 40758.1489989446
 1008752.88683352 755318.873600778 58825.5336264780
 900015.140999382 881961.463822871 60548.7673056586
 812062.303882296 964238.446447312 48460.9525825156
 368418.263504772 -1205883.28362041 40778.9200439095
 442230.424205477 -1181395.84497876 16897.9375343450
 556742.212918889 -1131927.77126065 -18084.7980920375
 692860.953016421 -1052610.69130037 -59193.4393685535
 836722.134864950 -938666.289710500 -101740.338642632
 976130.810974083 -786868.963959138 -139840.281549723
 1098684.74100361 -597249.644983899 -166535.678974149
 1191524.25788007 -375721.670959822 -175078.838736893
 1243725.29257453 -136000.846689144 -161865.985398968
 1250594.43902625 103619.880805540 -129714.688055857
 1214924.45795043 328450.152794085 -87341.2246441749
 1143358.73841693 531276.125936032 -45010.0457121085
 1043455.90896851 708959.762479315 -11191.6103814623
 925141.281410996 857666.954004323 8392.63707786806
 805510.744249188 970863.405114699 11230.3351315015
 715738.733657611 1038877.62219881 884.395666542949
 278626.959719401 -1229576.01381710 45379.2296335916
 335964.710894416 -1215785.39944079 23302.4989899673
 432185.912486755 -1185153.82314019 -13235.6889940419
 558364.286218831 -1129546.48657014 -62477.9118676787
 707279.252108015 -1037516.10238818 -121925.500785212
 868929.486849001 -895574.525623479 -185626.632942489
 1026375.19539236 -692406.538193451 -242232.481449551
 1154181.52313768 -428370.123140530 -275524.010146306
 1225436.69054424 -126363.989330129 -271820.695657095
 1227827.71587083 173192.441547766 -232363.743404821
 1170303.28398696 437862.358540249 -173828.102969192
 1071277.40577407 656260.377303465 -115049.849971380
 947949.985594609 829607.539451496 -68495.1546853397
 815934.736535477 961354.230445624 -39974.7450027811
 693673.966731205 1053296.81602789 -30523.3704537169
 608039.966261122 1104782.43971459 -35952.6250278981
 186323.953574438 -1247200.41346297 36386.0399212830
 227778.008971220 -1240737.88028629 15366.2607924808
 302700.555968223 -1224484.21498904 -23668.7891146715
 410600.954954472 -1190015.20688376 -82583.8609827727
 552668.424644846 -1122300.42658277 -162938.012175404
 726399.917212250 -997723.262942922 -261612.082625248
 916438.678651216 -787011.718246233 -363733.603801024
 1084513.68269097 -474024.336359789 -436669.705285003
 1177640.33981294 -91500.0071949059 -443103.159148680
 1170080.31698411 279255.821505391 -380102.182157208
 1084778.37376219 577831.746136811 -284456.998320138
 959695.794828409 795845.697110893 -192777.173694657
 821954.586564884 949122.226483242 -122910.893493613
 688618.252579701 1054085.75042731 -79104.7652112620
 574410.641408469 1121635.76196456 -59456.3994693147
 498603.324242995 1157381.98269207 -58404.6411902371
 93957.1039603093 -1257929.97695911 18266.5432419396
 119514.334787485 -1255890.43927911 -2226.93210310175
 170263.196630835 -1249228.97735733 -44573.9489250233
 251355.548522177 -1230952.80301222 -114564.461777810
 371053.177188309 -1185586.41556639 -219667.525687902
 536810.299820613 -1082137.03968524 -363818.031805346
 742863.114047290 -869551.862709370 -532525.476165771
 945490.391755413 -501012.704561221 -668269.122349223
 1059864.70008165 -18268.8212741992 -684033.989366778
 1041468.07825689 427299.485311007 -569481.187348450
 935507.074510638 741425.624029302 -408245.010370318
 800902.363037158 937416.758323759 -267122.924913278
 668102.749769509 1057085.78471852 -166606.693789315
 549553.250785841 1130737.99353344 -104748.486622166
 453480.379544063 1174909.24291624 -74116.4435028866
 391777.086132981 1197342.26195969 -66570.6649009753
 1273.45339877427 -1261557.38312191 -4558.32491188064
 10277.3600421852 -1261284.52164629 -24600.0456299620
 33588.9254423761 -1259166.00340268 -70158.3272427325
 78909.3788949767 -1250025.33568130 -150862.192070198
 157554.329666071 -1219717.66838065 -281095.844086126
 283935.541835496 -1133388.19477361 -475774.357179280
 466154.242464054 -919190.846197680 -727556.074414963
 672429.273613966 -489417.471504956 -948608.898066871
 802463.929232193 104089.828592954 -967866.923075519
 793219.906918549 609357.180768462 -768788.291035312
 702083.731510782 910102.518849358 -519943.525828435
 593230.791522427 1065391.01194035 -323370.763343476
 491554.980358517 1145727.13265949 -192957.170614512
 403716.889260056 1189665.23895403 -115146.530427931
 333612.739306668 1214322.50595916 -75318.1426505780
 288718.129002634 1226501.06422098 -62341.0969504254
 -92802.5548107154 -1257835.86453484 -28036.6658047943
 -101331.196584067 -1256608.98009453 -47066.8743765106
 -108575.774737548 -1253349.84931863 -94206.6201073871
 -106940.185715781 -1243801.81757574 -181852.319735857
 -87142.4192845069 -1214609.77316035 -329664.569863922
 -35831.4473339800 -1128786.85784013 -562232.841328499
 63808.1666431788 -900416.715378615 -881321.557353147
 212604.642777817 -411537.059962225 -1173450.44423099
 349387.611360357 265076.932032417 -1182882.89701523
 401298.283298680 787492.551025302 -900202.533222467
 386923.339473670 1050852.62995058 -580989.251548984
 347024.544102239 1162336.57264450 -346550.268507510
 300702.749415648 1209117.17472210 -197896.299118671
 255373.621390631 1230474.10552195 -110757.483073360
 216012.370896975 1241220.97712910 -65257.7387986442
 189237.827872853 1246351.27651000 -48445.5463670998
 -189237.812101874 -1246351.28074579 -48445.4989981643
 -216012.350670184 -1241220.98368634 -65257.6810314178
 -255373.599927231 -1230474.11721356 -110757.402672079
 -300702.726880545 -1209117.19838005 -197896.188814088
 -347024.519833228 -1162336.62408953 -346550.120262026
 -386923.330190295 -1050852.74350150 -580989.052348464
 -401298.299350767 -787492.791309815 -900202.315866946
 -349387.676138778 -265077.333557622 -1182882.78790220
 -212604.743500727 411536.668066412 -1173450.56342257
 -63808.2448679173 900416.497390064 -881321.774401177
 35831.3999696651 1128786.76154065 -562233.037686097
 87142.3999006179 1214609.73356328 -329664.720878423
 106940.178108578 1243801.80224687 -181852.429053069
 108575.774891554 1253349.84418966 -94206.6881670690
 101331.198031567 1256608.97818814 -47066.9221576968
 92802.5560528788 1257835.86353986 -28036.7063318700
 -288718.097183870 -1226501.07486340 -62341.0349319962
 -333612.698461436 -1214322.52110928 -75318.0793105713
 -403716.842954914 -1189665.26217229 -115146.452893717
 -491554.930325786 -1145727.17153265 -192957.067253717
 -593230.732996910 -1065391.08460031 -323370.631321203
 -702083.679522938 -910102.651665513 -519943.363548270
 -793219.879239358 -609357.422900207 -768788.127675545
 -802463.968603678 -104090.191608471 -967866.851391606
 -672429.383356555 489417.142152702 -948608.990198153
 -466154.353229527 919190.655518021 -727556.244349854
 -283935.625466432 1133388.10509074 -475774.520911712
 -157554.383650160 1219717.63148037 -281095.973943924
 -78909.4114162669 1250025.32192746 -150862.289022251
 -33588.9407007372 1259165.99935649 -70158.3925566060
 -10277.3739224162 1261284.52061651 -24600.0926295652
 -1273.46358653475 1261557.38298521 -4558.35989749893
 -391777.041123957 -1197342.28011298 -66570.6032793212
 -453480.325286615 -1174909.26833273 -74116.3725687340
 -549553.187309023 -1130738.03186850 -104748.405828438
 -668102.679384535 -1057085.84326004 -166606.604603108
 -800902.290352351 -937416.850251867 -267122.820236651
 -935507.009658146 -741425.770035846 -408244.893815195
 -1041468.04466700 -427299.707178768 -569481.082303345
 -1059864.72956551 18268.5340417772 -684033.951354715
 -945490.486413464 501012.445252786 -668269.182831597
 -742863.225487706 869551.698231598 -532525.589281397
 -536810.390280252 1082136.95394684 -363818.153352429
 -371053.242145809 1185586.37600223 -219667.629499508
 -251355.586228894 1230952.78782194 -114564.542262797
 -170263.221051000 1249228.97188720 -44574.0089508015
 -119514.349890468 1255890.43775676 -2226.98009715602
 -93957.1147164542 1257929.97676195 18266.5014930298
 -498603.270527100 -1157382.00908892 -58404.5766692832
 -574410.578732194 -1121635.79744108 -59456.3357280689
 -688618.179064215 -1054085.80364651 -79104.6960182333
 -821954.512035945 -949122.300728519 -122910.818573904
 -959695.723543237 -795845.802727462 -192777.092552142
 -1084778.31574388 -577831.894311290 -284456.918578968
 -1170080.29156408 -279256.017540154 -380102.116384366
 -1177640.36570574 91499.7892758681 -443103.135332928
 -1084513.75624223 474024.142598349 -436669.732949543
 -916438.766833079 787011.584485215 -363733.671043102
 -726399.996203970 997723.185010069 -261612.160510916
 -552668.480206340 1122300.38796778 -162938.089692809
 -410600.989792786 1190015.19044653 -82583.9246260269
 -302700.570406846 1224484.21031817 -23668.8461020444
 -227778.014547026 1240737.87994715 15366.2055246531
 -186323.953280663 1247200.41493890 36385.9908351853
 -608039.902870453 -1104782.47649861 -35952.5667767582
 -693673.896890842 -1053296.86372981 -30523.3115532343
 -815934.663277346 -961354.295068896 -39974.6861654205
 -947949.911800225 -829607.629146131 -68495.0896008995
 -1071277.34225891 -656260.491291252 -115049.791185433
 -1170303.24083772 -437862.497742734 -173828.042830214
 -1227827.70254808 -173192.604436095 -232363.692394274
 -1225436.71410087 126363.824144279 -271820.666249368
 -1154181.57604167 428369.979083398 -275524.012501649
 -1026375.25594292 692406.436122693 -242232.516650696
 -868929.540057665 895574.463873098 -185626.681790470
 -707279.286481990 1037516.07202694 -121925.559741440
 -558364.301795706 1129546.47593498 -62477.9649316960
 -432185.916249159 1185153.82118150 -13235.7415248787
 -335964.701290567 1215785.40319757 23302.4414473583
 -278626.949212391 1229576.01830413 45379.1725676273
 -715738.662159613 -1038877.67140337 884.459402721573
 -805510.668849273 -970863.466937726 11230.3986843493
 -925141.209103029 -857667.031475627 8392.69075598983
 -1043455.84451578 -708959.858169404 -11191.5579450576
 -1143358.68754096 -531276.239880552 -45009.9931341743
 -1214924.42732370 -328450.279126128 -87341.1755880986
 -1250594.43319718 -103620.011480793 -129714.639867269
 -1243725.31020748 136000.720451537 -161865.955978804
 -1191524.29146550 375721.568198736 -175078.830693121
 -1098684.78052035 597249.567992667 -166535.694385552
 -976130.839234347 786868.923734021 -139840.310627037
 -836722.148501000 938666.272970725 -101740.380941264
 -692860.951623486 1052610.68970755 -59193.4839973084
 -556742.196497617 1131927.77844081 -18084.8542161463
 -442230.396853554 1181395.85611946 16897.8744660235
 -368418.237012251 1205883.29382355 40778.8576715262
 -812062.231727159 -964238.503490267 48461.0266926902
 -900015.066113799 -881961.535510218 60548.8362199033
 -1008752.81882777 -755318.959600890 58825.5955635234
 -1108083.04449730 -601697.736531697 40758.2049306636
 -1185327.83152360 -431794.605962457 10038.9738635582
 -1235996.86913070 -251175.919433971 -27781.7910611940
 -1258269.22626163 -62432.3620048295 -66409.2262897452
 -1250742.76217039 131577.445110044 -99394.9180574913
 -1212792.34154719 325540.727065842 -121274.078948796
 -1145620.38708381 512321.408000325 -128957.878865413
 -1052227.23432737 685160.984847187 -122154.423178042
 -936852.082239935 838631.930560420 -102733.110369320
 -805433.269746782 968169.034853826 -73995.9380923888
 -667456.904696700 1069781.88901500 -40217.1757730933
 -538962.563841308 1140625.62304959 -6478.71432349739
 -447938.667902078 1179196.98376401 19870.9385516486
 -880170.817437166 -898861.755386862 94320.2404248112
 -962248.999288030 -809147.567864912 104434.226700043
 -1058568.70943512 -679069.526924018 99228.5036015354
 -1142705.54417018 -528907.975822385 77651.9372144707
 -1205248.21404693 -370094.002315173 44233.5043374036
 -1244344.98359093 -207690.060047463 4453.27840269306
 -1260305.16777053 -43108.5106991959 -36358.9234595807
 -1253408.46674707 123069.466573242 -73284.0555857198
 -1223665.91655364 289403.307285650 -102161.055769936
 -1171116.20576462 453456.451063966 -120056.280564141
 -1095832.07277280 612336.982702944 -125478.758424199
 -997994.319190470 762601.922543565 -118300.792539025
 -879033.549306380 899394.293987544 -99696.3091364489
 -744483.846444967 1015911.15425410 -72234.0637343098
 -608587.429220835 1104335.15175242 -40182.6395011518
 -501892.055608510 1157377.11349491 -11489.6733727608
 513350.351198793 -1152288.51844877 15875.0777690338
 626851.702591287 -1094773.27084230 -8823.79320942001
 767921.782189642 -1000037.81180586 -42070.6823831483
 903523.784340471 -877360.976235534 -73701.5564900705
 1019937.83251681 -736036.583638332 -97603.2595044087
 1112983.65094286 -583654.572603134 -110291.266799817
 1182613.83189081 -425241.942717659 -110196.396008226
 1229801.48414704 -263974.350714769 -97238.2778200818
 1255320.28669096 -102151.825209509 -72700.8483269023
 1259592.46756433 58615.9234514957 -39248.1858444787
 1242620.81139590 217812.808859459 -728.218023706632
 1203697.94872299 375760.952293987 38267.2953073190
 1141655.11502642 531858.955573171 72794.7843570376
 1057059.67045079 681592.855266850 98007.4674430477
 958016.886773022 813342.879450936 110573.215667907
 871693.655507030 905037.441356400 112280.147892700
 457465.169033322 -1175258.87789765 32274.1376804840
 553760.421423706 -1133498.55102688 8936.52077529423
 687417.490618078 -1057519.98822677 -25653.4405520196
 827628.520467311 -950082.991286743 -62632.0420845273
 958028.841945324 -815243.761217606 -95434.6829806964
 1069743.22627114 -658065.896087801 -118945.942226411
 1157877.42460085 -483856.276483595 -129431.079057919
 1219429.56948204 -298284.553958091 -124768.909836620
 1252563.25474166 -107722.753393309 -105026.340464160
 1256802.67608993 81631.2834590021 -73026.0080586248
 1232827.10014041 265580.187561492 -33969.6342802938
 1181507.63068984 442215.602587076 5874.55268031501
 1103756.41802192 609626.026644236 40339.9086803853
 1002938.82502488 762591.858352757 64162.3078664733
 890859.188132326 890155.917308432 74443.1374940002
 799137.417363453 973369.190199260 74035.3878862017
 376145.008785532 -1203365.66717778 44445.8585525345
 454124.443148738 -1176784.00503361 22356.8009978683
 573600.776895924 -1123535.59040258 -14119.3754139741
 713088.382615884 -1039034.67280667 -58833.1386443766
 857718.289309707 -919054.849772554 -105862.884015749
 994860.237799073 -761437.969604899 -148373.705922899
 1112369.72130278 -567679.580117983 -178669.886563995
 1198595.96944213 -344975.617128914 -189496.587152773
 1244480.69946873 -107247.900239672 -176960.751193468
 1246767.25258419 128367.701128790 -143675.266171807
 1208419.93801572 348733.568176067 -98262.8248740727
 1135333.37197856 547676.162796047 -51170.1680254500
 1034097.36631518 722541.329027400 -11229.2362290705
 913784.675519424 869656.352510503 15646.9243924603
 791075.012290886 982344.532587093 27367.4102569829
 698613.514215521 1050102.62854860 27803.9239983591
 285908.368653038 -1227907.65922978 45261.6400272374
 346869.927653090 -1212711.77616134 23681.8953741394
 447830.788760256 -1179302.69941884 -15561.4491857865
 578049.700417458 -1119165.60352890 -69830.6998678188
 729026.694299685 -1020627.86929948 -135603.327122272
 889346.430083703 -870796.412139553 -205732.755829518
 1041135.24869951 -660348.844679640 -267443.878532736
 1159927.65435265 -392552.406652613 -303347.779978959
 1222094.85083450 -91704.6037002285 -299372.463902317
 1218275.72864847 203569.562161112 -256735.492806359
 1157551.28861279 463299.588334495 -192296.480984221
 1056965.87421460 677168.497002856 -125759.287257873
 932580.510232609 846663.992846626 -70732.6379420984
 799330.709466373 975440.100218124 -33711.4032546000
 675306.698805194 1065490.92811735 -15471.7667837216
 588292.672873215 1115945.31975028 -11278.5322662657
 194481.452601768 -1245981.98505926 35430.0496844419
 239281.732583575 -1238591.36689596 13605.4849807180
 318788.679611732 -1220267.76493550 -29492.2113392041
 431091.735855869 -1181794.46352575 -95242.8064244283
 575922.723891706 -1107173.67733062 -184469.225754039
 748386.877633042 -972560.517936114 -292562.046850676
 930509.949970466 -751015.044365173 -402090.869160306
 1084553.30666547 -432023.456821749 -478172.864846745
 1164036.76040458 -51825.4596698111 -483613.454192268
 1149291.15335603 312609.894784808 -415877.781829182
 1062141.28918159 605257.691056066 -311558.084716306
 937338.720614291 818083.779645575 -209008.332936575
 800425.034785706 966636.879997695 -128383.553602378
 667814.271366922 1067678.17283132 -75078.9526911069
 553742.076596637 1132572.25464487 -46895.9650079504
 477845.292269422 1166967.24796079 -37426.5916391037
 103926.939559136 -1257145.50077698 18270.5235015490
 132646.880584267 -1254566.08484135 -4263.18613987539
 187925.866594011 -1246410.71910958 -51900.0854776023
 273739.964770139 -1224587.72925103 -130386.947101307
 396662.861906820 -1171890.90806211 -246738.129408921
 560608.926625913 -1055925.24667905 -402851.009347222
 754638.973718119 -828269.393799590 -579688.935170819
 934465.014601418 -452935.914680076 -716361.378494017
 1028417.70652997 21284.8426705860 -730378.947729927
 1003979.38851390 456100.343002144 -612819.137651187
 900629.702002786 764593.689794191 -442506.565280371
 770279.394659640 956569.905103118 -288432.144069874
 641404.265705917 1072090.24988369 -175420.907982893
 526040.333080519 1141991.20533481 -103378.362481900
 432004.179182838 1183535.24321495 -64545.7059427770
 371318.407217237 1204656.91778427 -49737.1271296118
 13585.9874395214 -1261490.81335212 -2404.09909471701
 25583.3091587788 -1261046.71387141 -25614.6568503617
 53456.9503869185 -1258053.43188629 -77416.7158526449
 103987.975800971 -1246028.25573964 -167778.180065814
 186757.228170631 -1208358.81898302 -310709.081346113
 311863.465641274 -1107315.50215788 -517825.248899680
 479372.486147829 -873892.630178376 -773345.408833158
 653758.136418282 -440044.761327318 -985144.830983867
 755290.067560209 130750.482522608 -1001993.34133713
 741506.277176021 620570.739166518 -810314.648465540
 657666.956395411 920857.533515989 -557714.091942637
 556848.936123673 1077058.56110149 -348444.470776722
 461837.864228163 1155992.59809874 -204783.620499909
 379183.185325522 1197581.29169658 -116484.302220075
 312571.577622464 1220290.94832771 -68836.3364147619
 269536.736011994 1231435.04454048 -49670.0104342514
 -77970.9965286906 -1258946.26786746 -22896.4897280449
 -83723.5667433257 -1257939.65427956 -46126.1474843782
 -86398.9242095992 -1254610.79558285 -100181.876711092
 -78943.3957622128 -1243414.69946062 -198083.962878726
 -53316.3635736570 -1208220.94873250 -359038.905048164
 454.984651083667 -1108262.62447739 -602746.363816831
 91283.0613036182 -860836.436226121 -917702.273999310
 211284.722870689 -376086.914106183 -1185523.86304051
 313784.164780597 261746.473197782 -1193556.74880603
 353222.767887747 770445.217324641 -934450.252429876
 342246.358358597 1044226.53536708 -619683.632141831
 309753.344183663 1164301.52136149 -374171.436698887
 270718.546163106 1213757.24629450 -212259.856661313
 231424.545402312 1234848.65586479 -114633.798738507
 196368.653011106 1244659.91942058 -61728.9885021906
 172022.213863782 1249151.35466947 -39732.6312215690
 -172022.198735331 -1249151.35853681 -39732.5751349219
 -196368.634823654 -1244659.92549444 -61728.9238901014
 -231424.528655867 -1234848.66700057 -114633.712590523
 -270718.527381416 -1213757.27097764 -212259.739470988
 -309753.326794848 -1164301.57613911 -374171.280643584
 -342246.347711744 -1044226.65308831 -619683.439650370
 -353222.775291589 -770445.454777973 -934450.053853187
 -313784.209773514 -261746.841015755 -1193556.65631508
 -211284.790405850 376086.559302510 -1185523.96355962
 -91283.1166945894 860836.212926304 -917702.477952508
 -455.017054158799 1108262.51978757 -602746.556284273
 53316.3413791661 1208220.90302262 -359039.062164676
 78943.3868409683 1243414.68085071 -198084.083252466
 86398.9187887699 1254610.78956914 -100181.956697750
 83723.5642931112 1257939.65239834 -46126.2032358374
 77970.9982381348 1258946.26687034 -22896.5387325818
 -269536.703810802 -1231435.05412764 -49669.9474876552
 -312571.537282127 -1220290.96288741 -68836.2614859269
 -379183.142715189 -1197581.31370202 -116484.214687380
 -461837.817246182 -1155992.63613419 -204783.511747806
 -556848.883986959 -1077058.63279910 -348444.332475587
 -657666.912188781 -920857.662429326 -557713.931219425
 -741506.249497704 -620570.970868285 -810314.496347188
 -755290.090568920 -130750.809446359 -1001993.28133300
 -653758.214611154 440044.451063918 -985144.917682290
 -479372.574836146 873892.435492511 -773345.573856141
 -311863.539569121 1107315.40173779 -517825.419114052
 -186757.278900300 1208358.77432752 -310709.224520929
 -103988.006248030 1246028.23932574 -167778.283094992
 -53456.9731301147 1258053.42637882 -77416.7896469644
 -25583.3230767726 1261046.71251522 -25614.7097163026
 -13585.9961278102 1261490.81316950 -2404.14581939150
 -371318.360883444 -1204656.93485882 -49737.0594862364
 -432004.124296096 -1183535.26722758 -64545.6329945513
 -526040.271079056 -1141991.24135594 -103378.280060932
 -641404.200809987 -1072090.30409969 -175420.813923800
 -770279.326946506 -956569.993522019 -288432.031666172
 -900629.645053125 -764593.827820091 -442506.442698700
 -1003979.35329549 -456100.556106310 -612819.036743178
 -1028417.72680117 -21285.1135275506 -730378.911293445
 -934465.090461482 452935.666987715 -716361.436146699
 -754639.068114692 828269.225520817 -579689.052724897
 -560609.011710895 1055925.15382758 -402851.134318494
 -396662.924466531 1171890.86308575 -246738.242452927
 -273740.005933603 1224587.70976415 -130387.043700750
 -187925.892501994 1246410.71235827 -51900.1538034707
 -132646.896499885 1254566.08298209 -4263.23807455528
 -103926.943993123 1257145.50113318 18270.4737710267
 -477845.233469055 -1166967.27412986 -37426.5264188563
 -553742.010865539 -1132572.28952389 -46895.8987988509
 -667814.198626600 -1067678.22325026 -75078.8827090560
 -800424.959560700 -966636.952742129 -128383.474889170
 -937338.652063355 -818083.881246939 -209008.242686627
 -1062141.23787413 -605257.828133729 -311557.993331909
 -1149291.12971595 -312610.076977600 -415877.710207288
 -1164036.78072999 51825.2497872235 -483613.427761467
 -1084553.36772037 432023.265291546 -478172.899412127
 -930510.028495125 751014.905699867 -402090.946435723
 -748386.954294838 972560.432174096 -292562.135843970
 -575922.778336306 1107173.63488729 -184469.310517548
 -431091.768886755 1181794.44539483 -95242.8818912889
 -318788.701977060 1220267.75749134 -29492.2775957889
 -239281.734701193 1238591.36713129 13605.4263135359
 -194481.453793341 1245981.98641964 35429.9953027157
 -588292.599265301 -1115945.35916301 -11278.4720228320
 -675306.625314244 -1065490.97561633 -15471.7033902956
 -799330.632226575 -975440.165598883 -33711.3428928702
 -932580.438379186 -846664.077490061 -70732.5721244698
 -1056965.81485232 -677168.602749142 -125759.216772755
 -1157551.24786782 -463299.716458799 -192296.417563612
 -1218275.71507593 -203569.713077406 -256735.437547623
 -1222094.86854396 91704.4446821758 -299372.440319765
 -1159927.69831529 392552.266759170 -303347.792908037
 -1041135.30593926 660348.736003962 -267443.924035857
 -889346.484255795 870796.343443311 -205732.812420797
 -729026.731743291 1020627.83430560 -135603.389202870
 -578049.726609100 1119165.58611464 -69830.7621522504
 -447830.791453323 1179302.69757442 -15561.5114605626
 -346869.922975431 1212711.77875732 23681.8309515628
 -285908.359140592 1227907.66369346 45261.5790196146
 -698613.435138982 -1050102.67941343 27803.9898395272
 -791074.931694676 -982344.595791039 27367.4712634882
 -913784.599699814 -869656.431121631 15646.9830700267
 -1034097.30228457 -722541.421633536 -11229.1740796672
 -1135333.32402364 -547676.267100612 -51170.1156449537
 -1208419.90976172 -348733.681249490 -98262.7710407659
 -1246767.24490926 -128367.825321076 -143675.221811764
 -1244480.71417526 107247.783034603 -176960.718802098
 -1198595.99934932 344975.516113717 -189496.581881645
 -1112369.75457369 567679.507612648 -178669.909792580
 -994860.267267082 761437.922787016 -148373.748601352
 -857718.306929272 919054.827525569 -105862.934397667
 -713088.384140784 1039034.66857655 -58833.1948686734
 -573600.766387900 1123535.59500135 -14119.4363604613
 -454124.424036512 1176784.01365714 22356.7353037528
 -376144.987729527 1203365.67621866 44445.7919685030
 -799137.330067609 -973369.255837334 74035.4671900010
 -890859.104859676 -890155.994446288 74443.2116375229
 -1002938.75880650 -762591.939922045 64162.3734642085
 -1103756.36639629 -609626.116400198 40339.9648168314
 -1181507.59375278 -442215.700569853 5874.60577244568
 -1232827.08051570 -265580.284491897 -33969.5886829471
 -1256802.67208703 -81631.3841923161 -73025.9643463013
 -1252563.26462668 107722.665860842 -105026.312353358
 -1219429.58788156 298284.481308114 -124768.903692815
 -1157877.44462362 483856.226442645 -129431.087005843
 -1069743.24023607 658065.867958431 -118945.972257636
 -958028.842737432 815243.755341213 -95434.7252276963
 -827628.507257239 950082.999156519 -62632.0972653970
 -687417.462884450 1057520.00472151 -25653.5037429050
 -553760.382270550 1133498.57067644 8936.45461002186
 -457465.128338649 1175258.89563935 32274.0684394614
 -871693.566234690 -905037.515945344 112280.239737382
 -958016.805957506 -813342.963504001 110573.297592422
 -1057059.60488479 -681592.945936336 98007.5440442683
 -1141655.07001832 -531859.043865119 72794.8451423042
 -1203697.91965753 -375761.040501201 38267.3434214276
 -1242620.79572249 -217812.898436612 -728.170040547937
 -1259592.46503832 -58616.0056506094 -39248.1441500413
 -1255320.29472489 102151.750400490 -72700.8147195988
 -1229801.49730399 263974.293660177 -97238.2663071922
 -1182613.84584462 425241.903498856 -110196.397600961
 -1112983.65838748 583654.554102798 -110291.289576501
 -1019937.82737826 736036.585573193 -97603.2986103757
 -903523.766058233 877360.990959592 -73701.6053373636
 -767921.743640280 1000037.83877810 -42070.7448883106
 -626851.648473170 1094773.30127093 -8823.86252028487
 -513350.292693982 1152288.54552256 15875.0044871334
 535355.745755238 -1141226.83863350 50447.5885289810
 652726.740912581 -1079238.62213593 27225.5230756093
 797162.492945208 -977761.909531527 -7939.71218604644
 932722.454463042 -848284.897999684 -44620.4626271021
 1045581.66460151 -701897.078506158 -75159.1960614340
 1132800.23138853 -547093.728696198 -94876.3337525639
 1195788.52883624 -389017.291680937 -101512.422864614
 1236730.17824704 -230439.622046113 -94580.5356468860
 1257219.91142877 -72922.7627739293 -75031.9658239559
 1258032.74884403 82846.4353845779 -45160.8447548076
 1239023.91420311 237273.433200869 -8395.76374246594
 1198893.77822532 391452.558325797 31113.2452784158
 1135539.20307133 545302.192873522 68888.8064521665
 1048473.12232474 694367.721165388 100533.628628196
 945367.987885576 826308.632524399 122649.265043816
 855085.280888798 917803.323267876 134222.401724608
 477237.597991609 -1166581.76918345 53671.9832963585
 577566.077949494 -1121155.89121510 31246.1856017994
 715670.567456032 -1038911.92910082 -5203.20748532619
 857543.926771114 -924111.250315886 -46757.2627143785
 985837.684864977 -782534.304433083 -85519.3101261182
 1092245.53135039 -620710.187423416 -115186.776119695
 1173225.31040848 -444817.571314404 -131259.781295864
 1227358.93338443 -260642.446844790 -131167.810316217
 1254171.43998397 -73883.4744791622 -114650.173337798
 1253897.19834306 110485.115256836 -84168.2019118451
 1227091.33154728 289504.582457414 -44535.2859723772