# ODT 1.0
# Table Start
# Title: mmArchive Data Table, Thu Jul 08 20:49:51 BST 2021
# Columns: {Oxs_CGEvolve:evolver:Max mxHxm} {Oxs_CGEvolve:evolver:Total energy} {Oxs_CGEvolve:evolver:Delta E} {Oxs_CGEvolve:evolver:Bracket count} {Oxs_CGEvolve:evolver:Line min count} {Oxs_CGEvolve:evolver:Conjugate cycle count} {Oxs_CGEvolve:evolver:Cycle count} {Oxs_CGEvolve:evolver:Cycle sub count} {Oxs_CGEvolve:evolver:Energy calc count} Oxs_UniformExchange:exchange:Energy {Oxs_UniformExchange:exchange:Max Spin Ang} {Oxs_UniformExchange:exchange:Stage Max Spin Ang} {Oxs_UniformExchange:exchange:Run Max Spin Ang} Oxs_DMI_T:dmi:Energy Oxs_Demag:demag:Energy Oxs_MinDriver::Iteration {Oxs_MinDriver::Stage iteration} Oxs_MinDriver::Stage Oxs_MinDriver::mx    Oxs_MinDriver::my    Oxs_MinDriver::mz   
# Units:                 A/m                                 J                                J                                 {}                                   {}                                        {}                                      {}                                   {}                                      {}                                     J                                      deg                                            deg                                              deg                                J                     J                       {}                           {}                         {}                 {}                   {}                   {}           
                  0.094949907367500003              -2.14707237508e-17                -9.2444637330600007e-33               215                                  176                                       11                                      191                                  157                                     392                                   1.37556602459e-17                       15.1632804445                                  20.3904274426                                    20.3904274426                     -3.6329838854299998e-17   1.1034548575500001e-18     370                          370                        0                   -4.2549459732099996e-18  7.8007342842100003e-18  0.13574617635799999
# Table End
