# OOMMF OVF 2.0
#
# Segment count: 1
#
# Begin: Segment
# Begin: Header
#
# Title: Oxs_MinDriver::Magnetization
# Desc: Oxs vector field output
# Desc:  MIF source file: /home/grl31/Documents/GitHub/phd-work/Skyrmions/Bloch points/vortex_field/drive-0/vortex_field.mif
# Desc:  Iteration: 370, State id: 801
# Desc:  Stage: 0, Stage iteration: 370
# Desc:  Stage simulation time: -1 s
# Desc:  Total simulation time: -2 s
# meshunit: m
# meshtype: rectangular
# xbase: -4.95e-08
# ybase: -4.95e-08
# zbase: 1.0000000000000001e-09
# xnodes: 34
# ynodes: 34
# znodes: 15
# xstepsize: 3e-09
# ystepsize: 3e-09
# zstepsize: 2.0000000000000001e-09
# xmin: -5.1e-08
# ymin: -5.1e-08
# zmin: 0
# xmax: 5.1e-08
# ymax: 5.1e-08
# zmax: 3.0000000000000004e-08
# valuedim: 3
# valuelabels: Magnetization_x Magnetization_y Magnetization_z
# valueunits: A/m A/m A/m
#
# End: Header
#
# Begin: Data Text
 0.00000000000000 -0.00000000000000 0.00000000000000
 -0.00000000000000 0.00000000000000 0.00000000000000
 -0.00000000000000 -0.00000000000000 -0.00000000000000
 -0.00000000000000 -0.00000000000000 0.00000000000000
 0.00000000000000 -0.00000000000000 -0.00000000000000
 -0.00000000000000 -0.00000000000000 -0.00000000000000
 -0.00000000000000 0.00000000000000 0.00000000000000
 0.00000000000000 -0.00000000000000 -0.00000000000000
 0.00000000000000 -0.00000000000000 0.00000000000000
 0.00000000000000 -0.00000000000000 0.00000000000000
 0.00000000000000 -0.00000000000000 -0.00000000000000
 0.00000000000000 0.00000000000000 -0.00000000000000
 -0.00000000000000 0.00000000000000 -0.00000000000000
 -117072.475683278 268089.341452279 -248753.171712587
 -127166.627073732 289273.490219314 -218186.839234237
 -142874.222730033 292352.318180984 -203894.773188263
 -159060.805825264 287698.365073627 -198457.327363288
 -172693.895886539 280133.967384220 -197883.244973156
 -182017.325216791 273636.992711950 -198616.438243376
 -186542.718366390 273243.076095389 -194925.718134902
 -188022.656811282 286561.494359381 -173164.634022498
 0.00000000000000 0.00000000000000 -0.00000000000000
 -0.00000000000000 -0.00000000000000 -0.00000000000000
 0.00000000000000 0.00000000000000 -0.00000000000000
 -0.00000000000000 0.00000000000000 -0.00000000000000
 -0.00000000000000 0.00000000000000 -0.00000000000000
 0.00000000000000 -0.00000000000000 -0.00000000000000
 -0.00000000000000 0.00000000000000 -0.00000000000000
 0.00000000000000 0.00000000000000 -0.00000000000000
 0.00000000000000 0.00000000000000 -0.00000000000000
 -0.00000000000000 -0.00000000000000 -0.00000000000000
 0.00000000000000 -0.00000000000000 -0.00000000000000
 0.00000000000000 -0.00000000000000 -0.00000000000000
 0.00000000000000 0.00000000000000 -0.00000000000000
 0.00000000000000 -0.00000000000000 0.00000000000000
 0.00000000000000 0.00000000000000 0.00000000000000
 -0.00000000000000 -0.00000000000000 0.00000000000000
 -0.00000000000000 -0.00000000000000 0.00000000000000
 -0.00000000000000 0.00000000000000 -0.00000000000000
 -0.00000000000000 0.00000000000000 -0.00000000000000
 0.00000000000000 0.00000000000000 -0.00000000000000
 0.00000000000000 -0.00000000000000 -0.00000000000000
 0.00000000000000 -0.00000000000000 0.00000000000000
 0.00000000000000 -0.00000000000000 0.00000000000000
 -56811.7071424204 306240.972192752 -224599.414251244
 -76950.5726988005 327718.469318913 -184757.176392679
 -109543.596611165 328508.553639809 -165946.770462613
 -149090.518115398 311402.145533351 -168097.356211535
 -168165.667256768 307552.151415206 -156805.556393785
 -185038.364597054 302357.045766114 -147638.140406995
 -201325.739998289 294120.624567940 -142888.084240450
 -215840.875372523 284024.138176802 -142123.205182503
 -227452.982667726 273826.810502884 -144013.952537151
 -236097.018057673 264814.985567452 -146925.904738359
 -243838.393096423 254995.607927502 -151578.619830892
 -253915.540459647 228263.020000421 -175723.908485364
 -252564.556946761 217392.883857517 -190807.438592939
 -247161.761941462 228340.625496275 -185007.086842537
 -0.00000000000000 -0.00000000000000 0.00000000000000
 0.00000000000000 0.00000000000000 0.00000000000000
 -0.00000000000000 0.00000000000000 -0.00000000000000
 -0.00000000000000 0.00000000000000 0.00000000000000
 0.00000000000000 0.00000000000000 0.00000000000000
 -0.00000000000000 -0.00000000000000 -0.00000000000000
 0.00000000000000 0.00000000000000 -0.00000000000000
 0.00000000000000 -0.00000000000000 -0.00000000000000
 -0.00000000000000 -0.00000000000000 -0.00000000000000
 -0.00000000000000 -0.00000000000000 0.00000000000000
 0.00000000000000 -0.00000000000000 -0.00000000000000
 0.00000000000000 0.00000000000000 0.00000000000000
 0.00000000000000 -0.00000000000000 0.00000000000000
 -0.00000000000000 0.00000000000000 -0.00000000000000
 0.00000000000000 -0.00000000000000 0.00000000000000
 -0.00000000000000 -0.00000000000000 -0.00000000000000
 0.00000000000000 -0.00000000000000 -0.00000000000000
 -0.00000000000000 0.00000000000000 0.00000000000000
 -9994.58238103813 317353.649543200 -215969.371542912
 -35260.0694819083 341188.248176142 -172636.342658857
 -78341.7793499285 341351.204823790 -157473.555156521
 -105801.327854784 344549.167528738 -132468.676219768
 -134714.397234344 341445.887513793 -112795.111054096
 -164771.289678987 331744.136824549 -101253.393918715
 -187145.841687349 322491.614928581 -91823.7019504752
 -206341.411334796 312449.735828261 -85172.6748976138
 -224135.814881113 300871.164856397 -81827.1265873022
 -240530.419545746 287942.911533627 -81792.4016684016
 -255178.285385386 274164.444180473 -84698.8796560327
 -268203.894350620 259570.703318859 -90253.6483124904
 -280392.497211026 242777.684806809 -99473.8320746238
 -291446.107661240 221432.561291665 -116115.404356727
 -295702.669231187 204763.977452430 -134490.315440971
 -294671.878159299 193154.298034615 -152695.453019487
 -288573.704046320 173875.484808290 -184251.277107295
 -278202.030867150 184492.390315638 -189795.120951556
 0.00000000000000 0.00000000000000 -0.00000000000000
 -0.00000000000000 0.00000000000000 0.00000000000000
 0.00000000000000 -0.00000000000000 0.00000000000000
 -0.00000000000000 -0.00000000000000 0.00000000000000
 -0.00000000000000 0.00000000000000 0.00000000000000
 -0.00000000000000 0.00000000000000 0.00000000000000
 -0.00000000000000 -0.00000000000000 -0.00000000000000
 -0.00000000000000 -0.00000000000000 0.00000000000000
 -0.00000000000000 0.00000000000000 -0.00000000000000
 0.00000000000000 0.00000000000000 0.00000000000000
 -0.00000000000000 -0.00000000000000 -0.00000000000000
 -0.00000000000000 -0.00000000000000 -0.00000000000000
 -0.00000000000000 -0.00000000000000 0.00000000000000
 -0.00000000000000 -0.00000000000000 0.00000000000000
 -0.00000000000000 0.00000000000000 0.00000000000000
 7636.98292039244 330961.057830212 -194582.770798909
 -27624.2941056552 347660.222014733 -160702.421897839
 -55564.1153213490 358595.600208523 -125609.810921143
 -87095.3746950725 360792.994901280 -98482.5392487927
 -114307.455532821 358911.010126036 -74650.4683168191
 -140932.807710656 352858.081842260 -55543.8366463125
 -167271.958912801 343098.851754717 -41943.6489360319
 -190740.551679070 331660.536677707 -32792.2301135382
 -212055.182286656 318976.675191700 -27248.4926009041
 -231966.327403746 305006.764578647 -24869.5901068731
 -250676.614887056 289778.218260963 -25412.9685449895
 -268167.577026204 273346.132644870 -28706.1387161031
 -284519.190350513 255527.167803822 -34795.0691398391
 -299812.166233925 235795.395412416 -44375.6293524244
 -313263.583643545 214163.977632861 -58785.3540201571
 -322513.125359640 193557.594750220 -77309.3880797597
 -327158.087658993 174698.899800761 -99518.2399749646
 -326613.429131438 156987.294318981 -127022.271013428
 -319753.776664904 149321.830359193 -151382.011106706
 -309041.141503320 146046.967633350 -174985.302535465
 -0.00000000000000 0.00000000000000 -0.00000000000000
 -0.00000000000000 -0.00000000000000 -0.00000000000000
 0.00000000000000 0.00000000000000 0.00000000000000
 -0.00000000000000 0.00000000000000 -0.00000000000000
 0.00000000000000 -0.00000000000000 -0.00000000000000
 0.00000000000000 -0.00000000000000 0.00000000000000
 0.00000000000000 0.00000000000000 0.00000000000000
 -0.00000000000000 -0.00000000000000 -0.00000000000000
 -0.00000000000000 0.00000000000000 -0.00000000000000
 -0.00000000000000 0.00000000000000 0.00000000000000
 -0.00000000000000 -0.00000000000000 -0.00000000000000
 -0.00000000000000 0.00000000000000 0.00000000000000
 89455.5270156440 311945.073975093 -205289.988818323
 60421.2034617263 345169.589307291 -157045.320814321
 7532.26600008584 358906.832058682 -136327.366550173
 -27704.7347836825 368699.542981960 -103677.840812101
 -55808.3750253242 373142.051131269 -71459.3237764138
 -83045.3797443045 372330.323346428 -43927.1581128234
 -109020.714479245 367581.386836091 -21316.8446560737
 -134738.418174778 359567.526511733 -3571.07070678466
 -160312.008091558 348809.543745949 9378.81940306721
 -184869.503395547 336090.785898609 17951.3327733425
 -208218.558787855 321836.301673579 22856.6555160968
 -230423.141574255 306188.172743171 24697.7468455924
 -251513.986844874 289184.055623155 23859.9328318556
 -271486.658325174 270794.775818691 20522.7615279992
 -290345.228191819 250883.829641421 14592.8917865854
 -307972.801040596 229298.622241220 5558.38623052373
 -323780.773586233 206318.229746226 -7402.61644851771
 -336634.519689861 183098.403655055 -24661.1989195007
 -345798.737655166 160379.445852621 -46450.6876601399
 -350449.683517729 138818.925514192 -73282.5029690485
 -349450.565784768 120362.925374215 -104178.060396931
 -341613.674422579 102642.857798618 -142198.949329581
 -319189.247690152 82473.4578081647 -196906.965128609
 -297251.053102350 101612.357733684 -220845.512033516
 0.00000000000000 -0.00000000000000 -0.00000000000000
 0.00000000000000 0.00000000000000 -0.00000000000000
 0.00000000000000 -0.00000000000000 -0.00000000000000
 -0.00000000000000 0.00000000000000 0.00000000000000
 -0.00000000000000 -0.00000000000000 -0.00000000000000
 -0.00000000000000 -0.00000000000000 -0.00000000000000
 0.00000000000000 -0.00000000000000 -0.00000000000000
 0.00000000000000 0.00000000000000 -0.00000000000000
 0.00000000000000 0.00000000000000 -0.00000000000000
 101612.357733683 297251.053102350 -220845.512033516
 71610.8662596801 333277.248790432 -176788.459103582
 44856.5666364514 358747.724799817 -129398.448138084
 11301.2352692054 373162.178611513 -89879.1996810137
 -17993.7933548046 379787.139899112 -53795.4623361206
 -44178.0101845888 380791.047212306 -22416.1053505281
 -69698.4561027755 377603.503657963 3703.94952994628
 -95261.6745611131 371174.780799363 24708.2062958350
 -121264.209364548 362035.527079947 41003.2762000288
 -147619.131550899 350515.709593731 52946.4760693440
 -173800.067784020 336954.603163378 60919.0597865751
 -199344.773746290 321613.019977929 65442.5439658117
 -223943.049310072 304650.606295750 67033.7135278819
 -247397.696475357 286152.795412771 66082.9588936816
 -269595.341026838 266141.901276323 62792.0415470542
 -290466.767941418 244588.783892667 57108.5240185088
 -309876.887252806 221504.170777560 48664.3306196363
 -327465.308623120 197140.997077475 36849.6800483255
 -342631.041848333 172091.286417578 21084.5512418271
 -354768.963414004 146950.039465764 817.617981492097
 -363135.202601774 122403.478911611 -24621.3927653091
 -366655.822161051 99524.0317302716 -55807.4832218357
 -363742.679535639 79379.7003915651 -94053.8476085828
 -351741.641804584 66164.5909659015 -139126.073483481
 -333277.248790431 71610.8662596807 -176788.459103582
 -311945.073975093 89455.5270156446 -205289.988818323
 -0.00000000000000 -0.00000000000000 0.00000000000000
 0.00000000000000 -0.00000000000000 0.00000000000000
 0.00000000000000 -0.00000000000000 0.00000000000000
 0.00000000000000 -0.00000000000000 0.00000000000000
 0.00000000000000 -0.00000000000000 0.00000000000000
 -0.00000000000000 0.00000000000000 0.00000000000000
 -0.00000000000000 0.00000000000000 0.00000000000000
 0.00000000000000 -0.00000000000000 0.00000000000000
 82473.4578081643 319189.247690153 -196906.965128609
 66164.5909659010 351741.641804584 -139126.073483481
 45951.0506090067 370622.589336228 -89349.8585429094
 22203.2600097854 380492.868277426 -46778.1191900135
 -1848.20972077273 383848.355970372 -10631.2623742654
 -25930.4259511160 382630.869140076 19422.4352516210
 -50762.0204982845 378083.984979129 43951.3091640456
 -76722.3987766773 370849.627052711 63562.7850303731
 -103857.043290117 361190.956610909 78808.6760549324
 -131870.114959711 349210.016844223 90103.4789348909
 -160193.117008414 335011.031186191 97784.3251584513
 -188192.980529591 318733.661908760 102216.705315821
 -215317.251573938 300539.203035907 103781.831806858
 -241157.586221136 280586.773438385 102810.900100289
 -265456.576152394 259009.581537307 99513.0285405753
 -288067.648997801 235913.246068985 93904.0463988313
 -308869.443586396 211426.374600910 85758.7018427062
 -327667.337346032 185792.890312172 74639.9219319698
 -344156.870583680 159410.661180633 60002.4127181680
 -357954.933446133 132762.003129001 41213.0579640703
 -368522.712993794 106493.659850280 17496.0115279726
 -375022.914983734 81668.8881765868 -12000.2475434094
 -376205.624113721 60185.5876468084 -47989.8262636339
 -370622.589336228 45951.0506090072 -89349.8585429097
 -358747.724799817 44856.5666364520 -129398.448138084
 -345169.589307291 60421.2034617269 -157045.320814321
 -0.00000000000000 0.00000000000000 -0.00000000000000
 -0.00000000000000 0.00000000000000 -0.00000000000000
 -0.00000000000000 -0.00000000000000 0.00000000000000
 0.00000000000000 -0.00000000000000 0.00000000000000
 -0.00000000000000 0.00000000000000 -0.00000000000000
 -0.00000000000000 -0.00000000000000 -0.00000000000000
 0.00000000000000 -0.00000000000000 -0.00000000000000
 146046.967633350 309041.141503320 -174985.302535465
 102642.857798617 341613.674422579 -142198.949329581
 79379.7003915647 363742.679535640 -94053.8476085825
 60185.5876468080 376205.624113721 -47989.8262636336
 40322.8924205239 381800.091060548 -7665.16881744161
 19103.7963635674 382613.905902507 26412.9508863967
 -3778.60130389982 380070.506948957 54663.8081343478
 -28640.3057701880 374940.207472954 77817.5668183508
 -55570.5125446650 367484.945488875 96554.3006528533
 -84368.2288831327 357675.284147675 111383.989266875
 -114545.638338467 345393.661357068 122631.624926004
 -145390.478093812 330583.229775792 130507.996194327
 -176096.451226613 313311.704899982 135210.263804417
 -205904.056647414 293767.452694668 136967.891103808
 -234204.184783608 272215.122732127 136026.934045352
 -260583.021231714 248940.302381801 132594.173687270
 -284806.385912141 224213.834296867 126765.448973928
 -306756.654611176 198296.529485410 118468.735309370
 -326353.297863238 171474.687666402 107452.112419900
 -343494.711330230 144086.196901062 93308.9017765736
 -358021.054130035 116531.706816784 75480.3690106632
 -369643.641141133 89360.4374087631 53238.0577222733
 -377843.567787980 63461.0232310478 25747.5593351776
 -381800.091060548 40322.8924205243 -7665.16881744196
 -380492.868277426 22203.2600097859 -46778.1191900137
 -373162.178611513 11301.2352692059 -89879.1996810139
 -358906.832058682 7532.26600008639 -136327.366550173
 -330961.057830212 7636.98292039301 -194582.770798909
 0.00000000000000 -0.00000000000000 -0.00000000000000
 -0.00000000000000 -0.00000000000000 -0.00000000000000
 -0.00000000000000 0.00000000000000 0.00000000000000
 -0.00000000000000 0.00000000000000 0.00000000000000
 0.00000000000000 -0.00000000000000 0.00000000000000
 184492.390315638 278202.030867150 -189795.120951555
 149321.830359192 319753.776664905 -151382.011106706
 120362.925374215 349450.565784768 -104178.060396931
 99524.0317302714 366655.822161051 -55807.4832218353
 81668.8881765866 375022.914983734 -12000.2475434090
 63461.0232310475 377843.567787980 25747.5593351779
 43415.5573927506 377162.654751680 57614.4186548962
 20837.9237778238 374048.929001219 84315.9513121373
 -4580.84694218494 368868.369547053 106635.555932303
 -32824.9219324964 361534.122116191 125186.273392096
 -63560.1620370602 351741.512486202 140335.363311398
 -96155.5123998145 339170.985864340 152227.329290573
 -129745.104499776 323638.986260315 160872.665268957
 -163341.544630474 305176.535823357 166261.305722605
 -195978.404910215 284031.965001541 168446.750239390
 -226840.389454455 260612.850227139 167572.014395716
 -255344.237360987 235398.922442070 163837.321021947
 -281153.959191706 208863.738993195 157430.587131634
 -304138.397968917 181431.820135878 148453.122308301
 -324297.853088937 153473.080401529 136868.243482453
 -341688.825511368 125317.976613666 122475.104646285
 -356355.441058107 97291.0267171442 104886.871192758
 -368253.145442501 69790.0883591889 83516.2525411727
 -377162.654751680 43415.5573927508 57614.4186548959
 -382613.905902507 19103.7963635678 26412.9508863964
 -383848.355970372 -1848.20972077229 -10631.2623742657
 -379787.139899112 -17993.7933548040 -53795.4623361208
 -368699.542981960 -27704.7347836820 -103677.840812101
 -347660.222014733 -27624.2941056547 -160702.421897839
 -317353.649543200 -9994.58238103759 -215969.371542912
 0.00000000000000 0.00000000000000 0.00000000000000
 0.00000000000000 0.00000000000000 0.00000000000000
 0.00000000000000 0.00000000000000 -0.00000000000000
 -0.00000000000000 0.00000000000000 -0.00000000000000
 173875.484808290 288573.704046320 -184251.277107295
 156987.294318981 326613.429131438 -127022.271013428
 138818.925514192 350449.683517729 -73282.5029690481
 122403.478911611 363135.202601774 -24621.3927653088
 106493.659850280 368522.712993794 17496.0115279730
 89360.4374087631 369643.641141133 53238.0577222737
 69790.0883591888 368253.145442501 83516.2525411730
 47065.6818300066 365079.604044889 109351.288535179
 20863.5806506353 360150.080915498 131577.468508079
 -8782.37474881637 353077.190552088 150716.181631621
 -41487.2099690452 343307.998896525 166956.369458155
 -76531.7145687364 330337.211524188 180211.607138922
 -112918.532810798 313873.058916376 190234.349775044
 -149482.210235282 293934.212889882 196758.093393843
 -185042.439557506 270861.142666672 199623.487986538
 -218563.541208927 245245.345664347 198848.431937968
 -249274.675006450 217806.370243263 194624.051653138
 -276720.137841533 189262.524227481 187247.596075370
 -300737.300797176 160235.350685857 177024.598007761
 -321384.594083109 131204.748423458 164174.470235699
 -338849.704526780 102510.303739641 148756.564121791
 -353357.278303724 74391.4125029840 130616.046547106
 -365079.604044889 47065.6818300066 109351.288535179
 -374048.929001219 20837.9237778240 84315.9513121371
 -380070.506948957 -3778.60130389948 54663.8081343475
 -382630.869140077 -25930.4259511156 19422.4352516208
 -380791.047212306 -44178.0101845883 -22416.1053505282
 -373142.051131269 -55808.3750253237 -71459.3237764138
 -358595.600208523 -55564.1153213486 -125609.810921143
 -341188.248176142 -35260.0694819077 -172636.342658857
 0.00000000000000 0.00000000000000 -0.00000000000000
 -0.00000000000000 -0.00000000000000 -0.00000000000000
 -0.00000000000000 0.00000000000000 -0.00000000000000
 228340.625496276 247161.761941462 -185007.086842537
 193154.298034615 294671.878159299 -152695.453019487
 174698.899800761 327158.087658993 -99518.2399749643
 160379.445852621 345798.737655166 -46450.6876601396
 146950.039465764 354768.963414004 817.617981492436
 132762.003129001 357954.933446133 41213.0579640706
 116531.706816784 358021.054130035 75480.3690106635
 97291.0267171442 356355.441058107 104886.871192758
 74391.4125029841 353357.278303723 130616.046547106
 47505.4889177011 348758.868982292 153513.777325954
 16646.2296728336 341910.851331594 173999.634423133
 -17806.8530887875 332035.317187393 192071.507838466
 -55099.2320435843 318453.544612765 207382.290834519
 -94138.6638305769 300776.456877342 219379.659404663
 -133598.415872316 279028.290092823 227487.750448861
 -172083.090055286 253671.890602620 231287.660793041
 -208322.049908446 225525.156309192 230643.290372075
 -241335.552800391 195595.171014259 225733.648423163
 -270526.226917930 164886.941029317 216988.149970323
 -295679.576098716 134246.656541409 204957.125969157
 -316891.473658866 104275.181521579 190164.351130684
 -334458.011191068 75316.2359924303 172977.753905084
 -348758.868982292 47505.4889177010 153513.777325954
 -360150.080915498 20863.5806506354 131577.468508079
 -368868.369547053 -4580.84694218474 106635.555932303
 -374940.207472954 -28640.3057701876 77817.5668183505
 -378083.984979129 -50762.0204982840 43951.3091640454
 -377603.503657963 -69698.4561027751 3703.94952994613
 -372330.323346428 -83045.3797443041 -43927.1581128235
 -360792.994901280 -87095.3746950721 -98482.5392487928
 -341351.204823791 -78341.7793499281 -157473.555156521
 -306240.972192752 -56811.7071424200 -224599.414251244
 -0.00000000000000 0.00000000000000 -0.00000000000000
 0.00000000000000 -0.00000000000000 0.00000000000000
 217392.883857517 252564.556946761 -190807.438592939
 204763.977452431 295702.669231187 -134490.315440971
 193557.594750221 322513.125359640 -77309.3880797595
 183098.403655055 336634.519689861 -24661.1989195004
 172091.286417579 342631.041848332 21084.5512418274
 159410.661180633 344156.870583680 60002.4127181682
 144086.196901062 343494.711330230 93308.9017765738
 125317.976613666 341688.825511368 122475.104646285
 102510.303739641 338849.704526780 148756.564121791
 75316.2359924304 334458.011191068 172977.753905084
 43694.6418745016 327636.514405521 195450.998205842
 7971.03473329560 317403.804715590 215979.830904064
 -31119.7028062065 302919.410855811 233938.869416824
 -72440.2426628615 283706.122029654 248433.587837557
 -114537.006012096 259809.230864990 258527.441118206
 -155813.048276753 231842.248915177 263490.921294566
 -194756.277885563 200890.224891049 263000.208683159
 -230157.842458938 168292.215925347 257217.996286386
 -261252.732440016 135374.797789753 246731.988027513
 -287747.935190724 103224.017957373 232383.148937721
 -309750.260531255 72555.4139251900 215049.966312399
 -327636.514405521 43694.6418745015 195450.998205842
 -341910.851331594 16646.2296728336 173999.634423133
 -353077.190552088 -8782.37474881634 150716.181631621
 -361534.122116191 -32824.9219324962 125186.273392096
 -367484.945488875 -55570.5125446647 96554.3006528531
 -370849.627052711 -76722.3987766769 63562.7850303730
 -371174.780799363 -95261.6745611127 24708.2062958349
 -367581.386836091 -109020.714479245 -21316.8446560737
 -358911.010126036 -114307.455532821 -74650.4683168192
 -344549.167528739 -105801.327854784 -132468.676219768
 -327718.469318913 -76950.5726988000 -184757.176392679
 0.00000000000000 -0.00000000000000 -0.00000000000000
 -0.00000000000000 0.00000000000000 -0.00000000000000
 228263.020000421 253915.540459647 -175723.908485364
 221432.561291665 291446.107661240 -116115.404356727
 214163.977632861 313263.583643545 -58785.3540201569
 206318.229746226 323780.773586233 -7402.61644851752
 197140.997077475 327465.308623120 36849.6800483257
 185792.890312173 327667.337346032 74639.9219319699
 171474.687666402 326353.297863238 107452.112419900
 153473.080401529 324297.853088937 136868.243482454
 131204.748423458 321384.594083109 164174.470235699
 104275.181521579 316891.473658866 190164.351130684
 72555.4139251902 309750.260531255 215049.966312399
 36269.7693226031 298801.882042018 238449.028350785
 -3926.41000842824 283061.390631948 259454.875533210
 -46915.2615574122 261977.133540318 276808.489275524
 -91172.9586829257 235632.463125317 289172.671472422
 -134937.650040966 204817.309502732 295461.842425522
 -176466.482592945 170917.492805582 295131.819996299
 -214308.565214062 135636.352292033 288323.808959305
 -247502.594543720 100640.032513996 275807.993991670
 -275640.767771701 67249.7171967142 258757.884284110
 -298801.882042018 36269.7693226030 238449.028350785
 -317403.804715590 7971.03473329544 215979.830904064
 -332035.317187393 -17806.8530887875 192071.507838466
 -343307.998896525 -41487.2099690451 166956.369458155
 -351741.512486202 -63560.1620370600 140335.363311397
 -357675.284147675 -84368.2288831325 111383.989266875
 -361190.956610909 -103857.043290117 78808.6760549322
 -362035.527079948 -121264.209364547 41003.2762000287
 -359567.526511733 -134738.418174777 -3571.07070678476
 -352858.081842260 -140932.807710655 -55543.8366463126
 -341445.887513793 -134714.397234344 -112795.111054096
 -328508.553639809 -109543.596611165 -165946.770462613
 0.00000000000000 -0.00000000000000 0.00000000000000
 286561.494359381 188022.656811281 -173164.634022498
 254995.607927503 243838.393096422 -151578.619830892
 242777.684806810 280392.497211025 -99473.8320746238
 235795.395412416 299812.166233925 -44375.6293524243
 229298.622241220 307972.801040596 5558.38623052380
 221504.170777560 309876.887252806 48664.3306196363
 211426.374600910 308869.443586395 85758.7018427063
 198296.529485410 306756.654611176 118468.735309370
 181431.820135878 304138.397968916 148453.122308301
 160235.350685858 300737.300797176 177024.598007761
 134246.656541409 295679.576098715 204957.125969157
 103224.017957373 287747.935190724 232383.148937721
 67249.7171967144 275640.767771701 258757.884284110
 26839.0077011771 258257.784401254 282910.912588701
 -16985.8992979130 234997.242250508 303222.320022285
 -62710.2770113501 206002.411905001 317940.918169527
 -108472.587238695 172260.758441754 325600.873645657
 -152335.544910732 135477.121950655 325416.396613197
 -192608.174810884 97727.2009519184 317501.945175338
 -228105.311054787 61006.2006781069 302823.728507892
 -258257.784401254 26839.0077011769 282910.912588701
 -283061.390631948 -3926.41000842840 259454.875533210
 -302919.410855811 -31119.7028062066 233938.869416824
 -318453.544612765 -55099.2320435843 207382.290834519
 -330337.211524188 -76531.7145687364 180211.607138922
 -339170.985864341 -96155.5123998144 152227.329290573
 -345393.661357068 -114545.638338467 122631.624926004
 -349210.016844223 -131870.114959710 90103.4789348907
 -350515.709593731 -147619.131550899 52946.4760693438
 -348809.543745949 -160312.008091557 9378.81940306703
 -343098.851754717 -167271.958912801 -41943.6489360321
 -331744.136824549 -164771.289678987 -101253.393918715
 -311402.145533351 -149090.518115398 -168097.356211535
 -268089.341452279 -117072.475683277 -248753.171712587
 273243.076095390 186542.718366389 -194925.718134902
 264814.985567452 236097.018057672 -146925.904738359
 259570.703318859 268203.894350619 -90253.6483124904
 255527.167803822 284519.190350513 -34795.0691398392
 250883.829641421 290345.228191819 14592.8917865854
 244588.783892667 290466.767941418 57108.5240185088
 235913.246068986 288067.648997801 93904.0463988312
 224213.834296867 284806.385912141 126765.448973928
 208863.738993195 281153.959191706 157430.587131633
 189262.524227482 276720.137841533 187247.596075370
 164886.941029317 270526.226917929 216988.149970323
 135374.797789753 261252.732440016 246731.988027513
 100640.032513996 247502.594543720 275807.993991669
 61006.2006781071 228105.311054787 302823.728507892
 17322.1176750647 202447.991035522 325838.541558442
 -29001.1237389019 170761.541755791 342717.712817803
 -76094.0678280273 134242.855298086 351631.268010683
 -121890.976484398 94908.1292989069 351555.168991528
 -164485.055522984 55176.1338696872 342573.000630224
 -202447.991035523 17322.1176750645 325838.541558442
 -234997.242250508 -16985.8992979132 303222.320022285
 -261977.133540318 -46915.2615574123 276808.489275524
 -283706.122029654 -72440.2426628617 248433.587837557
 -300776.456877342 -94138.6638305769 219379.659404663
 -313873.058916376 -112918.532810798 190234.349775044
 -323638.986260315 -129745.104499776 160872.665268957
 -330583.229775793 -145390.478093812 130507.996194327
 -335011.031186191 -160193.117008414 97784.3251584511
 -336954.603163378 -173800.067784020 60919.0597865749
 -336090.785898609 -184869.503395547 17951.3327733423
 -331660.536677707 -190740.551679070 -32792.2301135385
 -322491.614928581 -187145.841687348 -91823.7019504754
 -307552.151415206 -168165.667256767 -156805.556393786
 -289273.490219314 -127166.627073732 -218186.839234237
 273636.992711951 182017.325216791 -198616.438243376
 273826.810502885 227452.982667726 -144013.952537151
 274164.444180473 255178.285385385 -84698.8796560327
 273346.132644870 268167.577026204 -28706.1387161033
 270794.775818692 271486.658325173 20522.7615279991
 266141.901276323 269595.341026838 62792.0415470541
 259009.581537307 265456.576152394 99513.0285405752
 248940.302381801 260583.021231714 132594.173687270
 235398.922442070 255344.237360986 163837.321021947
 217806.370243263 249274.675006450 194624.051653138
 195595.171014260 241335.552800391 225733.648423163
 168292.215925347 230157.842458938 257217.996286386
 135636.352292033 214308.565214062 288323.808959305
 97727.2009519186 192608.174810884 317501.945175338
 55176.1338696873 164485.055522984 342573.000630224
 9197.67243031613 130287.690506646 361104.583914839
 -38436.1167256713 91417.7034924113 370973.676180971
 -85621.8497277749 50158.9471200975 370956.842332093
 -130287.690506646 9197.67243031604 361104.583914839
 -170761.541755791 -29001.1237389021 342717.712817803
 -206002.411905001 -62710.2770113502 317940.918169527
 -235632.463125317 -91172.9586829258 289172.671472422
 -259809.230864990 -114537.006012096 258527.441118205
 -279028.290092823 -133598.415872316 227487.750448861
 -293934.212889883 -149482.210235282 196758.093393842
 -305176.535823358 -163341.544630474 166261.305722605
 -313311.704899982 -176096.451226612 135210.263804417
 -318733.661908760 -188192.980529591 102216.705315821
 -321613.019977929 -199344.773746289 65442.5439658115
 -321836.301673579 -208218.558787855 22856.6555160965
 -318976.675191700 -212055.182286656 -27248.4926009043
 -312449.735828261 -206341.411334796 -85172.6748976141
 -302357.045766115 -185038.364597053 -147638.140406995
 -292352.318180985 -142874.222730033 -203894.773188263
 280133.967384220 172693.895886538 -197883.244973156