# OOMMF OVF 2.0
#
# Segment count: 1
#
# Begin: Segment
# Begin: Header
#
# Title: Oxs_MinDriver::Magnetization
# Desc: Oxs vector field output
# Desc:  MIF source file: C:/Users/grl31/Documents/GitHub/phd-work/Skyrmions/stdprob3/drive-211/stdprob3.mif
# Desc:  Iteration: 1402, State id: 2861
# Desc:  Stage: 0, Stage iteration: 1402
# Desc:  Stage simulation time: -1 s
# Desc:  Total simulation time: -2 s
# meshunit: m
# meshtype: rectangular
# xbase: 3.1249999999999999e-09
# ybase: 3.1249999999999999e-09
# zbase: 3.1249999999999999e-09
# xnodes: 16
# ynodes: 16
# znodes: 16
# xstepsize: 6.2499999999999997e-09
# ystepsize: 6.2499999999999997e-09
# zstepsize: 6.2499999999999997e-09
# xmin: 0
# ymin: 0
# zmin: 0
# xmax: 9.9999999999999995e-08
# ymax: 9.9999999999999995e-08
# zmax: 9.9999999999999995e-08
# valuedim: 3
# valuelabels: Magnetization_x Magnetization_y Magnetization_z
# valueunits: A/m A/m A/m
#
# End: Header
#
# Begin: Data Text
 402851.790606870 1125597.71143105 402851.905475166
 381367.806220153 1131207.46094358 408016.798187726
 345009.304256669 1140592.73245373 414205.540244232
 297469.887587185 1151803.02444250 420012.963827218
 240971.897078606 1163152.00618126 424922.800345888
 177378.869306169 1173152.85469433 428717.327810723
 108569.939418940 1180571.67187879 431291.695643260
 36551.5503906233 1184516.03590603 432591.234035625
 -36551.9934264335 1184516.02436144 432591.228212597
 -108570.366248403 1180571.63553692 431291.687674740
 -177379.266628257 1173152.79971089 428717.313879284
 -240972.263399886 1163151.93453095 424922.788736725
 -297470.215470091 1151802.94376721 420012.952843492
 -345009.594032127 1140592.64448846 414205.541106793
 -381368.060778907 1131207.37061441 408016.810688387
 -402852.015959384 1125597.62276504 402851.927861974
 368200.375645324 1149089.34178692 368200.487350696
 351470.176533494 1154111.14573416 368843.610787350
 319814.893444609 1162471.65541028 371385.938368220
 276607.531597783 1172537.36507921 374424.667824438
 224394.262433071 1182753.81990541 377213.530252074
 165263.526924830 1191751.07360034 379429.540441652
 101165.756706890 1198414.46472197 380943.160240527
 34058.4045978228 1201952.21983455 381707.109221196
 -34058.8298517986 1201952.20940732 381707.104111194
 -101166.170308345 1198414.43246360 380943.151883644
 -165263.916860664 1191751.02279986 379429.530161142
 -224394.624075267 1182753.75528856 377213.517726871
 -276607.853804930 1172537.29192983 374424.658865106
 -319815.177706768 1162471.57615870 371385.941643520
 -351470.428631290 1154111.06485085 368843.623647659
 -368200.600119859 1149089.26244413 368200.510491128
 318693.532665695 1178311.59981679 318693.641124541
 305138.188591514 1182663.19382576 315828.888406212
 278696.224977957 1189541.03230758 314435.967342483
 241683.019489426 1197705.12278663 314071.946948623
 196339.186244425 1205948.86334356 314145.975406655
 144681.845946308 1213182.77697858 314331.264775005
 88577.0300836001 1218523.95147790 314488.346898917
 29819.6886585837 1221353.70491745 314571.684313238
 -29820.0904739200 1221353.69612981 314571.680341909
 -88577.4246905917 1218523.92494838 314488.338547758
 -144682.220608213 1213182.73519222 314331.253600948
 -196339.535795234 1205948.80964158 314145.963091555
 -241683.334779036 1197705.06155505 314071.937833457
 -278696.504105293 1189540.96670682 314435.968115381
 -305138.436578504 1182663.12762765 315828.896700976
 -318693.756023591 1178311.53447060 318693.659372245
 261842.635988155 1205995.95457253 261842.743745987
 250733.827220073 1209356.60093365 257174.241682052
 229239.939523927 1214459.70597562 253152.332810971
 199003.576582550 1220387.08779820 250204.642965990
 161768.559285058 1226306.59805922 248097.746265875
 119231.896582373 1231467.31710696 246620.016733665
 72994.4689255915 1235261.45367402 245663.142315598
 24572.1494838831 1237266.38417224 245188.774184420
 -24572.5261076134 1237266.37745448 245188.770338930
 -72994.8426524259 1235261.43319864 245663.134224771
 -119232.256674927 1231467.28545870 246620.000673362
 -161768.892977892 1226306.55754968 248097.728918110
 -199003.878755870 1220387.04129560 250204.629447265
 -229240.210558791 1214459.65641170 253152.325152841
 -250734.068631644 1209356.55049451 257174.243505069
 -261842.858220622 1205995.90512011 261842.749281565
 202289.765158691 1228701.38311658 202289.873593307
 193501.651436658 1230930.33858888 197274.031113313
 176807.670487701 1234230.16739778 192261.208934385
 153453.464073575 1237987.41785161 188118.628859220
 124724.889280196 1241692.98856773 184909.856564597
 91913.6057617066 1244898.73446966 182560.841668407
 56260.1535409036 1247244.27973846 181013.625736300
 18936.6915321763 1248480.36064447 180243.229325857
 -18937.0457447767 1248480.35619145 180243.222955788
 -56260.5044647454 1247244.26542304 181013.615304687
 -91913.9448093578 1244898.71250079 182560.820776041
 -124725.205090734 1241692.96093372 184909.829110545
 -153453.753041498 1237987.38511929 188118.608547749
 -176807.933819761 1234230.13270699 192261.189467423
 -193501.890160384 1230930.30304094 197274.018762883
 -202289.984956100 1228701.34837940 202289.864788271
 142854.034865292 1245285.04660089 142854.150635817
 136469.553367997 1246484.55907860 138570.328357560
 124547.127672446 1248232.96402911 133984.743230693
 108007.818932041 1250193.58905004 129998.968713926
 87739.9430398504 1252106.06212635 126813.021810669
 64633.9098309058 1253748.71085947 124442.993523672
 39552.1122390778 1254945.22098132 122872.102905988
 13311.0847630779 1255574.21361635 122088.656488064
 -13311.4154717340 1255574.21063656 122088.651075611
 -39552.4385620491 1254945.21210842 122872.088486002
 -64634.2273758557 1253748.69688343 124442.969401958
 -87740.2426832518 1252106.04442217 126812.989296497
 -108008.095356831 1250193.56877323 129998.934050990
 -124547.382316116 1248232.94189741 133984.712707440
 -136469.786431192 1246484.53671893 138570.299959893
 -142854.253681036 1245285.02486661 142854.121281615
 84786.4318089139 1255855.06003718 84786.5560044090
 80910.8958368716 1256298.89905843 81950.8027929978
 73760.4731702919 1256940.02776082 78807.2974367188
 63911.3919709648 1257651.75664224 76005.4202671365
 51888.1462578511 1258340.51615046 73730.5676844512
 38208.8156379172 1258928.90134302 72024.5700421441
 23375.8673890657 1259356.02429890 70890.0825561920
 7866.07794789382 1259580.13843200 70323.7556185493
 -7866.38585244611 1259580.13683541 70323.7497739255
 -23376.1725148703 1259356.01971339 70890.0634020417
 -38209.1146007080 1258928.89415323 72024.5371141272
 -51888.4290018352 1258340.50691993 73730.5262369632
 -63911.6580687916 1257651.74580548 76005.3758248158
 -73760.7181101459 1256940.01610092 78807.2541524531
 -80911.1224137852 1256298.88746251 81950.7568552402
 -84786.6478159985 1255855.04868932 84786.5080813368
 28080.0433970691 1260941.09530706 28080.1753486174
 26780.9169904312 1260990.96529125 27092.4132913750
 24398.5810355081 1261062.70299476 25980.7482180636
 21129.9215326832 1261141.94344297 24979.1077475179
 17148.7391647423 1261218.31145215 24160.3502000707
 12624.8031982596 1261283.36193820 23544.1321993554
 7722.61839198254 1261330.49705000 23133.7263691760
 2598.45547809814 1261355.20413235 22928.7582813604
 -2598.74388565876 1261355.20369151 22928.7498464687
 -7722.90411176924 1261330.49574061 23133.7023794950
 -12625.0832948982 1261283.35987457 23544.0925557214
 -17149.0077253717 1261218.30877343 24160.2994118769
 -21130.1756246987 1261141.94028025 24979.0524878604
 -24398.8154506651 1261062.69963544 25980.6911329644
 -26781.1338750387 1260990.96201254 27092.3515036706
 -28080.2483663673 1260941.09226032 28080.1071931065
 -28080.2438861549 1260941.09232025 -28080.1089825054
 -26781.1292449624 1260990.96211590 -27092.3512699010
 -24398.8134138024 1261062.69970338 -25980.6897480371
 -21130.1704990887 1261141.94033940 -24979.0538372699
 -17149.0004196255 1261218.30886591 -24160.2997700761
 -12625.0743728845 1261283.35988532 -23544.0967638854
 -7722.89536956934 1261330.49559128 -23133.7134401253
 -2598.73490569990 1261355.20337831 -22928.7680942176
 2598.45953737462 1261355.20369871 -22928.7816764426
 7722.62574217986 1261330.49665035 -23133.7457057858
 12624.8099952309 1261283.36161045 -23544.1461127255
 17148.7470655014 1261218.31114430 -24160.3606627046
 21129.9293481161 1261141.94303807 -24979.1215789600
 24398.5895670688 1261062.70248501 -25980.7649483033
 26780.9277614918 1260990.96469469 -27092.4304106427
 28080.0549424361 1260941.09462228 -28080.1945531952
 -84786.6244596566 1255855.05159147 -84786.4884511623
 -80911.1005000493 1256298.89003590 -81950.7390411415
 -73760.7003425677 1256940.01808331 -78807.2391640908
 -63911.6377997505 1257651.74758608 -76005.3634053240
 -51888.4090431785 1258340.50810720 -73730.5200201509
 -38209.0899748396 1258928.89501079 -72024.5351888548
 -23376.1468581584 1259356.01993777 -70890.0678764632
 -7866.36153897011 1259580.13612181 -70323.7652750134
 7866.10227234723 1259580.13706164 -70323.7774424311
 23375.8910137233 1259356.02261220 -70890.1047300657
 38208.8394509768 1258928.89950065 -72024.5896124368
 51888.1677453936 1258340.51405599 -73730.5883083489
 63911.4111088135 1257651.75406975 -76005.4467411153
 73760.4910728611 1256940.02465072 -78807.3302852781
 80910.9122460878 1256298.89573886 -81950.8374806205
 84786.4515227604 1255855.05610631 -84786.5945144380
 -142854.214920318 1245285.03374707 -142854.082629849
 -136469.747250461 1246484.54494431 -138570.264556727
 -124547.345646754 1248232.94884645 -133984.682055027
 -108008.059816451 1250193.57406575 -129998.912681369
 -87740.2046860289 1252106.04866894 -126812.973655130
 -64634.1863438396 1253748.69980198 -124442.961309414
 -39552.3949615108 1254945.21354694 -122872.087828714
 -13311.3713051083 1255574.21038396 -122088.658488960
 13311.1272249751 1255574.21172808 -122088.671277701
 39552.1527023666 1254945.21775569 -122872.122825644
 64633.9494430040 1253748.70645619 -124443.017312279
 87739.9776822441 1252106.05687596 -126813.049682593
 108007.849000626 1250193.58284151 -129999.003438940
 124547.152759857 1248232.95669326 -133984.788252841
 136469.574746750 1246484.55120976 -138570.378085672
 142854.055596821 1245285.03818368 -142854.203278603
 -202289.931919615 1228701.36603603 -202289.810579025
 -193501.834783768 1230930.31929735 -197273.971645497
 -176807.876929615 1234230.14735892 -192261.147726116
 -153453.697893763 1237987.39711846 -188118.574568135
 -124725.147153656 1241692.97028826 -184909.805373242
 -91913.8810302660 1244898.71950331 -182560.805136025
 -56260.4389495872 1247244.26950040 -181013.607572941
 -18936.9818489718 1248480.35721162 -180243.222602544
 18936.7536182150 1248480.35848799 -180243.237740160
 56260.2132243311 1247244.27467528 -181013.642073292
 91913.6608215572 1244898.72720145 -182560.863510061
 124724.936788578 1241692.97963626 -184909.884495327
 153453.504009867 1237987.40642673 -188118.671467980
 176807.705198004 1234230.15385998 -192261.263920584
 193501.681656086 1230930.32407419 -197274.092039046
 202289.789575725 1228701.36867449 -202289.936897006
 -261842.793340603 1205995.93307550 -261842.685404598
 -250734.001012874 1209356.57670038 -257174.186197915
 -229240.136785343 1214459.68054095 -253152.276201422
 -199003.802637895 1220387.06141804 -250204.591840474
 -161768.811456399 1226306.57497608 -248097.695937258
 -119232.170542358 1231467.29865792 -246619.976406778
 -72994.7558466274 1235261.44149079 -245663.118322517
 -24572.4445132908 1237266.38094069 -245188.760924175
 24572.2280454070 1237266.38198696 -245188.777338486
 72994.5459359089 1235261.44658037 -245663.155102140
 119231.968156956 1231467.30601583 -246620.037512111
 161768.620237721 1226306.58317160 -248097.780109652
 199003.628799922 1220387.06920079 -250204.692144079
 229239.982978753 1214459.68484708 -253152.394821740
 250733.863658886 1209356.57862010 -257174.311084789
 261842.666870287 1205995.93263317 -261842.813912191
 -318693.684312804 1178311.57281342 -318693.589317451
 -305138.355424671 1182663.16527542 -315828.834130757
 -278696.416614092 1189541.00107470 -314435.915645161
 -241683.240022882 1197705.09162220 -314071.896089487
 -196339.433945973 1205948.83560895 -314145.927062792
 -144682.116340815 1213182.75516453 -314331.224509269
 -88577.3201348775 1218523.93765277 -314488.318771712
 -29819.9898954386 1221353.70191435 -314571.667417288
 29819.7843230625 1221353.70294080 -314571.682919276
 88577.1202515197 1218523.94171110 -314488.359345369
 144681.931113837 1213182.76056547 -314331.288921224
 196339.261982442 1205948.84093682 -314146.014086266
 241683.083423494 1197705.09552270 -314072.001720666
 278696.278088705 1189541.00217117 -314436.034277339
 305138.231589747 1182663.16250595 -315828.964144603
 318693.568260827 1178311.56890240 -318693.719829711
 -368200.522580620 1149089.31043961 -368200.438244909
 -351470.342412366 1154111.11216824 -368843.557749461
 -319815.080798875 1162471.62075706 -371385.885497851
 -276607.747014760 1172537.33083620 -374424.615918742
 -224394.507379446 1182753.78880357 -377213.482059815
 -165263.796249594 1191751.04967299 -379429.498288493
 -101166.050257528 1198414.44964470 -380943.129714984
 -34058.7115731895 1201952.21754304 -381707.089046419
 34058.5137537670 1201952.21746914 -381707.106929994
 101165.859674965 1198414.45114546 -380943.175606158
 165263.621129079 1191751.05192718 -379429.567483511
 224394.348846795 1182753.78948160 -377213.574240752
 276607.604734621 1172537.32867306 -374424.727802754
 319814.950444045 1162471.61721925 -371386.008825174
 351470.227082089 1154111.10534023 -368843.689012265
 368200.415529062 1149089.30332535 -368200.567498804
 -402851.936144421 1125597.67696417 -402851.856240612
 -381367.971965084 1131207.42468032 -408016.743806319
 -345009.492580141 1140592.69557316 -414205.484939181
 -297470.102242266 1151802.98987451 -420012.906595821
 -240972.139153662 1163151.97399634 -424922.751166700
 -177379.138841007 1173152.83058284 -428717.282271706
 -108570.235950846 1180571.65622066 -431291.663857455
 -36551.8613978425 1184516.03458960 -432591.211361761
 36551.6704201950 1184516.03338436 -432591.230798566
 108570.047747237 1180571.65602528 -431291.711769250
 177378.967341976 1173152.82905646 -428717.357405180
 240971.985784414 1163151.97106635 -424922.846162139
 297469.963828573 1151802.98225655 -420013.025516710
 345009.367625016 1140592.68735543 -414205.611648668
 381367.860403258 1131207.41514672 -408016.874513134
 402851.834805499 1125597.66705571 -402851.985264499
 408016.678638137 1131207.45888382 381367.940233143
 387562.062189630 1136283.68928756 387562.196723734
 351583.499563919 1145596.90249988 394393.471974405
 303750.623899886 1157043.33002649 400669.092694461
 246423.052055860 1168771.57394623 405953.344942092
 181582.983944044 1179170.58101429 410041.207357689
 111219.815634329 1186911.53830484 412820.280228643
 37456.4796040289 1191034.72908488 414225.442444493
 -37456.9285461546 1191034.71795885 414225.433839497
 -111220.245982113 1186911.50224509 412820.267962856
 -181583.386836501 1179170.52503546 410041.189920630
 -246423.423015343 1168771.50187530 405953.327258826
 -303750.951072603 1157043.24985792 400669.076170918
 -351583.785405835 1145596.81603158 394393.468324408
 -387562.314199209 1136283.60050415 387562.205015957
 -408016.902845170 1131207.37430404 381367.951238374
 368843.493537550 1154111.14403188 351470.305168736
 353737.356452452 1158140.36378654 353737.489301538
 323066.325274519 1166028.22502545 357149.490881031
 280085.479051819 1176001.30931073 360724.930996891
 227565.122158777 1186312.87952096 363902.868879199
 167765.647862549 1195469.87833512 366409.454449025
 102759.685744477 1202279.79398604 368121.141579163
 34605.0115395165 1205902.63077411 368986.136849866
 -34605.4409366650 1205902.62064827 368986.129671803
 -102760.099593712 1202279.76243787 368121.129090392
 -167766.039120166 1195469.82803588 366409.439415464
 -227565.485216894 1186312.81508643 363902.851896856
 -280085.800127832 1176001.23695513 360724.917583620
 -323066.607527863 1166028.14790580 357149.487344951
 -353737.606417589 1158140.28577112 353737.494759749
 -368843.718248188 1154111.06835672 351470.317842514
 315828.774952944 1182663.19176148 305138.314020428
 303993.045930998 1186054.72398153 303993.175360303
 278862.758760272 1192325.67036927 303553.106513548
 242498.426992206 1200198.40410974 303756.044545104
 197333.899565356 1208329.20036986 304219.175159663
 145561.907106152 1215536.53176763 304683.609760856
 89166.9989201199 1220883.91111128 305026.478870516
 30026.1377361411 1223723.30243850 305203.442052369
 -30026.5384938006 1223723.29362113 305203.437978832
 -89167.3917983418 1220883.88489172 305026.468967108
 -145562.281774354 1215536.49122174 304683.592521708
 -197334.246672141 1208329.14827239 304219.156932302
 -242498.738056389 1200198.34472618 303756.030848018
 -278863.034713312 1192325.60734419 303553.100561907
 -303993.290115458 1186054.66194087 303993.173232653
 -315828.997284895 1182663.13091384 305138.319733919
 257174.133437448 1209356.59857687 250733.949612393
 247639.601099023 1211981.28070775 247639.726418198
 227495.384272503 1216551.71974241 244534.648353652
 198101.816114555 1222158.70665070 242142.927067794
 161337.682332498 1227892.59708532 240414.960436350
 119044.918199328 1232947.09494215 239205.349947659
 72924.0485474603 1236683.08631418 238424.952735326
 24555.0156152870 1238662.16041703 238038.934794484
 -24555.3888340619 1238662.15391187 238038.930144958
 -72924.4186445164 1236683.06705539 238424.939431250
 -119045.270970205 1232947.06503024 239205.328560829
 -161338.009676032 1227892.55869777 240414.936822495
 -198102.114894925 1222158.66222447 242142.906860417
 -227495.650979651 1216551.67294213 244534.633060436
 -247639.841684087 1211981.23390723 247639.714880980
 -257174.351020383 1209356.55318507 250733.945377404
 197273.925505573 1230930.33612679 193501.774765428
 189799.607457442 1232680.65743871 189799.727882924
 174306.146057291 1235607.09475707 185585.305861217
 151791.452968853 1239114.96826275 181941.971935429
 123629.028134594 1242657.01949721 179077.709991411
 91216.9752196194 1245756.60724390 176972.794120738
 55871.1645264669 1248037.43274390 175585.905936194
 18811.3310005029 1249242.60617878 174895.613588787
 -18811.6772281797 1249242.60158784 174895.609141192
 -55871.5076149582 1248037.41934830 175585.891979482
 -91217.3075881677 1245756.58650650 176972.768783739
 -123629.336824590 1242656.99339093 179077.678039087
 -151791.735743743 1239114.93837946 181941.939540409
 -174306.403412116 1235607.06273921 185585.277318731
 -189799.838086445 1232680.62558616 189799.704124696
 -197274.137078237 1230930.30551334 193501.753810746
 138570.218205849 1246484.55735890 136469.680922607
 133169.301763773 1247429.86672627 133169.424366072
 122178.847178177 1248971.11771065 129201.034615687
 106332.310351031 1250785.60568729 125611.461657985
 86571.6794745087 1252596.82135606 122702.805023453
 63858.4704376071 1254170.63852069 120530.229174829
 39106.6354113217 1255323.81477337 119089.134888913
 13165.5145384761 1255931.73416589 118370.516856830
 -13165.8362257239 1255931.73140699 118370.510349753
 -39106.9534308460 1255323.80657657 119089.116859721
 -63858.7789522157 1254170.62577822 120530.198310409
 -86571.9693398997 1252596.80528943 122702.764525868
 -106332.578712003 1250785.58716540 125611.418918469
 -122179.092444982 1248971.09807276 129200.992516316
 -133169.524968801 1247429.84730503 133169.383084440
 -138570.426777872 1246484.53868723 136469.639683127
 81950.6855609355 1256298.89794416 80911.0318766657
 78682.7805159404 1256649.29514844 78682.9077510672
 72119.8512856081 1257212.38009513 75928.8436962230
 62721.9321404340 1257867.46637013 73381.3818016680
 51042.3199970355 1258515.93811112 71286.3662178862
 37639.5982762661 1259076.38999635 69708.9356849195
 23046.1122666677 1259485.70556974 68659.0496135531
 7757.90613261008 1259701.10366885 68134.9779986851
 -7758.20372235130 1259701.10225493 68134.9702550934
 -23046.4060354439 1259485.70150539 68659.0255631583
 -37639.8852187936 1259076.38350245 69708.8980407716
 -51042.5917709193 1258515.92979297 71286.3184742313
 -62722.1822985189 1257867.45703899 73381.3279310188
 -72120.0848623317 1257212.36984000 75928.7916386123
 -78682.9947191828 1256649.28544625 78682.8485020275
 -81950.8896097731 1256298.88873652 80910.9681719104
 27092.2901064298 1260990.96487247 26781.0613260603
 25998.5614455380 1261030.36189718 25998.6941052797
 23816.6340183700 1261093.25423446 25020.0517050883
 20704.0876806104 1261165.99603825 24106.0595934357
 16843.7720580587 1261237.69226789 23349.5581237691
 12418.5905047259 1261299.47877074 22777.9362866955
 7602.82710309806 1261344.52355217 22396.8936226420
 2559.11143468739 1261368.20525622 22206.5899301610
 -2559.38744613805 1261368.20490451 22206.5780980596
 -7603.09977589986 1261344.52246000 22396.8625681055
 -12418.8581692876 1261299.47694811 22777.8912795523
 -16844.0249983783 1261237.68997480 23349.4995201132
 -20704.3240489856 1261165.99336090 24105.9966532231
 -23816.8533002175 1261093.25142878 25019.9843847782
 -25998.7644778402 1261030.35925588 25998.6191855560
 -27092.4835484989 1260990.96249995 26780.9773453548
 -27092.4777231987 1260990.96253168 -26780.9817443171
 -25998.7584768771 1261030.35930670 -25998.6227219643
 -23816.8490959386 1261093.25144969 -25019.9873329942
 -20704.3164768610 1261165.99343258 -24105.9994068710
 -16844.0172189291 1261237.69002075 -23349.5026501951
 -12418.8471371403 1261299.47699477 -22777.8947106918
 -7603.08977476838 1261344.52233065 -22396.8732483547
 -2559.37954834167 1261368.20464582 -22206.5937023663
 2559.12125249719 1261368.20495466 -22206.6059275304
 7602.83536456555 1261344.52324690 -22396.9080102265
 12418.5996842038 1261299.47846199 -22777.9483790887
 16843.7799813120 1261237.69193876 -23349.5701865296
 20704.0951798660 1261165.99560458 -24106.0758407256
 23816.6432572128 1261093.25367781 -25020.0709675646
 25998.5693701405 1261030.36129956 -25998.7151674426
 27092.2999590944 1260990.96414238 -26781.0857352764
 -81950.8666983596 1256298.89117979 -80910.9534412291
 -78682.9730655133 1256649.28766039 -78682.8347935437
 -72120.0646079790 1257212.37187819 -75928.7771289814
 -62722.1596544031 1257867.45866788 -73381.3193643914
 -51042.5670450007 1258515.93119740 -71286.3113840461
 -37639.8582940722 1259076.38442507 -69708.8959147069
 -23046.3786485163 1259485.70175126 -68659.0302456911
 -7758.17578944891 1259701.10172633 -68134.9832086728
 7757.93349236301 1259701.10250427 -68134.9964146080
 23046.1396578358 1259485.70405324 -68659.0682381442
 37639.6250509665 1259076.38808827 -69708.9556912318
 51042.3435169440 1258515.93586901 -71286.3889603577
 62721.9522045502 1257867.46372295 -73381.4100287580
 72119.8713759791 1257212.37686372 -75928.8781185389
 78682.7964088231 1256649.29170443 -78682.9468626653
 81950.7040893865 1256298.89407873 -80911.0731282913
 -138570.389830283 1246484.54670893 -136469.603930975
 -133169.486348596 1247429.85483538 -133169.351166026
 -122179.053236210 1248971.10465500 -129200.965964362
 -106332.537738426 1250785.59265473 -125611.398942946
 -86571.9267117750 1252596.80954243 -122702.751185500
 -63858.7324114686 1254170.62877289 -120530.191807595
 -39106.9059491804 1255323.80796819 -119089.117782787
 -13165.7882879182 1255931.73129725 -118370.516846082
 13165.5645189078 1255931.73227955 -118370.531312283
 39106.6812043846 1255323.81156993 -119089.153618951
 63858.5124039372 1254170.63416057 -120530.252309446
 86571.7184053811 1252596.81573655 -122702.834922185
 106332.343719219 1250785.59923847 -125611.497625747
 122178.877229665 1248971.11002073 -129201.080535111
 133169.325462927 1247429.85844171 -133169.478270391
 138570.240589073 1246484.54878349 -136469.736520795
 -197274.086650694 1230930.32191954 -193501.700855983
 -189799.783565797 1232680.64081793 -189799.659720510
 -174306.344712704 1235607.07689375 -185585.238211287
 -151791.676017870 1239114.95006363 -181941.909793892
 -123629.272484772 1242657.00311183 -179077.655001843
 -91217.2378173536 1245756.59377442 -176972.753585071
 -55871.4380466446 1248037.42343311 -175585.885081877
 -18811.6082125307 1249242.60267974 -174895.608765267
 18811.3980526352 1249242.60379088 -174895.623433054
 55871.2295480695 1248037.42733092 -175585.923721000
 91217.0356816530 1245756.59944377 -176972.817863920
 123629.079767530 1242657.00971867 -179077.742201124
 151791.499205389 1239114.95634704 -181942.014512913
 174306.187423063 1235607.08079386 -185585.359975064
 189799.640634496 1232680.64238952 -189799.792444901
 197273.953128884 1230930.32154538 -193501.839360898
 -257174.288125838 1209356.57999284 -250733.880586452
 -247639.770706131 1211981.25997994 -247639.658255733
 -227495.576117441 1216551.69666268 -244534.584697351
 -198102.033467433 1222158.68306835 -242142.868273360
 -161337.923357659 1227892.57552443 -240414.908808880
 -119045.178171108 1232947.07854802 -239205.305068803
 -72924.3256670455 1236683.07545127 -238424.924320752
 -24555.2989845185 1238662.15677484 -238038.924515801
 24555.1018201478 1238662.15811637 -238038.937873724
 72924.1318588552 1236683.07898756 -238424.965256248
 119044.994555957 1232947.08310180 -239205.372976647
 161337.750323174 1227892.58121563 -240414.995861782
 198101.875982231 1222158.68719428 -242142.976290489
 227495.435922449 1216551.69723162 -244534.712293102
 247639.646310330 1211981.25695621 -247639.797450020
 257174.170381643 1209356.57586015 -250734.021288045
 -315828.925749177 1182663.16820079 -305138.249258157
 -303993.211227008 1186054.69846017 -303993.109638033
 -278862.944039595 1192325.64171644 -303553.048849771
 -242498.639223743 1200198.37559944 -303755.987763288
 -197334.137085112 1208329.17470879 -304219.123013986
 -145562.167522300 1215536.51195805 -304683.564377898
 -89167.2784498580 1220883.89825472 -305026.448615797
 -30026.4294252612 1223723.29948108 -305203.425213508
 30026.2431906533 1223723.29959833 -305203.443065432
 89167.0982922913 1220883.90017334 -305026.493601147
 145561.998931351 1215536.51479147 -304683.633618006
 197333.983323430 1208329.17641957 -304219.215957625
 242498.501630817 1200198.37481142 -303756.100721906
 278862.818759439 1192325.63904502 -303553.174433045
 303993.097535374 1186054.69164064 -303993.249936607
 315828.819747499 1182663.15919969 -305138.393860346
 -368843.640073902 1154111.11525606 -351470.245879229
 -353737.516589278 1158140.33344854 -353737.428491691
 -323066.508188012 1166028.19221066 -357149.432557426
 -280085.688240084 1176001.27751265 -360724.872237358
 -227565.359025233 1186312.85060109 -363902.815033625
 -167765.908900132 1195469.85567475 -366409.408862360
 -102759.969474742 1202279.78059338 -368121.106117044
 -34605.3124604009 1205902.62849597 -368986.116073461
 34605.1344215624 1205902.62772002 -368986.135306704
 102759.797293254 1202279.78045469 -368121.154633941
 167765.751932083 1195469.85504859 -366409.482775388
 227565.217708258 1186312.84730979 -363902.914135199
 280085.561080975 1176001.27127108 -360724.991318483
 323066.394114844 1166028.18385834 -357149.563013327
 353737.414578266 1158140.32195852 -353737.568121131
 368843.544511303 1154111.10166424 -351470.390796491
 -408016.820822823 1131207.42765787 -381367.880734948
 -387562.222637997 1136283.65462827 -387562.137892064
 -351583.679929863 1145596.86782267 -394393.411913560
 -303750.833783342 1157043.29656712 -400669.030203191
 -246423.289017052 1168771.54398996 -405953.287347566
 -181583.247436716 1179170.55817216 -410041.156360256
 -111220.103817130 1186911.52399178 -412820.243739772
 -37456.7859542294 1191034.72745086 -414225.419440888
 37456.6119196042 1191034.72621922 -414225.438719501
 111219.935947939 1186911.52222583 -412820.294043623
 181583.093376455 1179170.55402750 -410041.236503438
 246423.151287368 1168771.53759426 -405953.389366440
 303750.710014542 1157043.28585344 -400669.154972148
 351583.571266442 1145596.85449928 -394393.547482512
 387562.125419078 1136283.64014136 -387562.277584772
 408016.730793478 1131207.41126205 -381368.025688265
 414205.417726688 1140592.73100263 345009.456143999
 394393.335963940 1145596.90249143 351583.652162935
 358803.065034257 1155019.49869637 358803.217756151
 310771.618524976 1166818.46277155 365383.506707330
 252627.456938363 1179049.24643883 370906.556145678
 186432.972750365 1189971.68943761 375179.365007489
 114303.159889132 1198137.62663799 378087.881573330
 38513.8026252243 1202497.45302671 379560.263186973
 -38514.2535230148 1202497.44108150 379560.255278354
 -114303.592571985 1198137.59034993 378087.865759460
 -186433.376541746 1189971.63348849 375179.341812579
 -252627.824129561 1179049.17570987 370906.530883989
 -310771.941102925 1166818.38453654 365383.482179492
 -358803.346228985 1155019.41563874 358803.203931337
 -394393.582449761 1145596.81863429 351583.648903626
 -414205.639025087 1140592.65035415 345009.457083235
 371385.816562996 1162471.65366947 319815.041218749
 357149.358155051 1166028.22411373 323066.475293523
 327252.358351957 1173610.29364884 327252.507268489
 284496.640942969 1183566.64481693 331332.294664925
 231627.145601215 1194057.17003970 334851.864286823
 171008.116331492 1203467.26093820 337597.699810905
 104842.255518115 1210503.93602147 339466.866208425
 35322.1329203480 1214257.84104893 340411.035802467
 -35322.5612768601 1214257.83032513 340411.029606705
 -104842.669535467 1210503.90457349 339466.850481700
 -171008.505956543 1203467.21214607 337597.676382440
 -231627.502202593 1194057.10806617 334851.838607753
 -284496.956432172 1183566.57547939 331332.271455383
 -327252.632934549 1173610.22072863 327252.494196236
 -357149.600938120 1166028.15119547 323066.470077536
 -371386.039124512 1162471.58303631 319815.039507861
 314435.850037548 1189541.02883249 278696.372158429
 303552.979222210 1192325.66831375 278862.906110575
 279493.204230587 1198046.93030921 279493.349624915
 243791.706845415 1205609.11238826 280395.618223139