# OOMMF OVF 2.0
#
# Segment count: 1
#
# Begin: Segment
# Begin: Header
#
# Title: Oxs_MinDriver::Magnetization
# Desc: Oxs vector field output
# Desc:  MIF source file: C:/Users/grl31/Documents/GitHub/phd-work/Skyrmions/stdprob3/drive-153/stdprob3.mif
# Desc:  Iteration: 582, State id: 1220
# Desc:  Stage: 0, Stage iteration: 582
# Desc:  Stage simulation time: -1 s
# Desc:  Total simulation time: -2 s
# meshunit: m
# meshtype: rectangular
# xbase: 3.1249999999999999e-09
# ybase: 3.1249999999999999e-09
# zbase: 3.1249999999999999e-09
# xnodes: 16
# ynodes: 16
# znodes: 16
# xstepsize: 6.2499999999999997e-09
# ystepsize: 6.2499999999999997e-09
# zstepsize: 6.2499999999999997e-09
# xmin: 0
# ymin: 0
# zmin: 0
# xmax: 9.9999999999999995e-08
# ymax: 9.9999999999999995e-08
# zmax: 9.9999999999999995e-08
# valuedim: 3
# valuelabels: Magnetization_x Magnetization_y Magnetization_z
# valueunits: A/m A/m A/m
#
# End: Header
#
# Begin: Data Text
 502317.703770837 -1157223.52075831 -7751.02580888381
 609566.229463764 -1103913.27960464 -36795.5694182801
 745880.505070828 -1015094.51092341 -69244.7612993887
 880553.006508576 -898196.478610529 -97051.1177643317
 999370.521661677 -761168.937571490 -115887.185783893
 1096906.37454498 -610881.728752359 -123163.914675043
 1171843.82199071 -452187.120789208 -117721.262198193
 1224086.60547986 -288475.015229644 -99717.4949144212
 1253608.38626125 -122560.416639857 -70670.9918387844
 1260380.28009067 43208.5640242417 -33526.1162750872
 1244363.51595943 207488.882449705 7565.36369306766
 1205206.39354192 369798.876551611 47705.0394173415
 1142480.41782259 528803.958818966 81573.8864359627
 1057896.45449961 679454.287838624 103664.811840021
 960799.171977799 810218.427933480 109363.984394913
 877832.329254066 900578.582613268 99589.4029182391
 447945.284309589 -1179129.24203789 23423.9995497268
 539325.831470268 -1140467.92251445 -3161.66782258875
 668178.000058630 -1069441.41303528 -37184.0724195543
 806368.838969766 -967597.712752410 -71227.7525534113
 937817.417331050 -837864.632189963 -100153.785723014
 1053066.07235888 -684312.634350439 -119655.742168728
 1146247.14573644 -511547.552609649 -126435.806752267
 1213200.88601432 -324983.277059467 -118654.585771968
 1250986.03300890 -131318.858987750 -96637.1223172801
 1258421.50558178 62399.7346637316 -63490.3010084139
 1236104.77728342 250969.204803943 -24675.2656751342
 1185353.15176680 431634.556998763 13377.0594659716
 1107856.45531114 601858.671659995 44380.6792652759
 1007979.31891673 756034.454276576 62761.6722358151
 898389.981702233 883317.901549576 64763.8517853068
 809565.362779752 966106.233735876 52840.3202386414
 368063.688922700 -1205879.44820111 43969.4009709871
 442034.901689195 -1181421.07667239 19970.3831169267
 556756.240967449 -1131964.16310759 -15134.4805947646
 693084.057472187 -1052619.84178875 -56350.5889008078
 837108.812047570 -938618.455139005 -98962.9394456729
 976603.537021915 -786771.060924194 -137062.978544377
 1099165.34959840 -597150.712876246 -163694.811379503
 1191963.92064116 -375685.718845524 -172138.558911769
 1244109.82867508 -136069.000490964 -158825.036497458
 1250926.98372519 103461.926609875 -126596.769505918
 1215186.18252303 328309.035738484 -84173.3317418621
 1143448.92779675 531344.395391020 -41798.4919100750
 1043160.80677034 709437.949687760 -7921.97450339208
 924181.665326194 858661.753701392 11733.4191226269
 803680.529348975 972333.761966505 14631.9173169517
 713126.150136145 1040664.17805415 4312.00948852220
 278125.355070195 -1229583.85147511 48158.7995870193
 335470.637499136 -1215865.78298635 26063.0017046797
 431729.277731344 -1185348.18682417 -10437.3205943113
 558009.741655295 -1129877.33600516 -59596.6837888021
 707105.149421887 -1037982.53095722 -118928.566827556
 869001.489746167 -896147.937789599 -182495.795385391
 1026723.35548664 -693021.637659396 -238976.132601355
 1154772.10722265 -428917.071121304 -272178.172159795
 1226145.64185128 -126735.898360132 -268429.335123627
 1228485.14565206 173025.564419721 -228988.715635595
 1170762.17244818 437923.015088686 -170554.388213865
 1071383.21211068 656626.167541019 -111935.337703317
 947510.687373565 830347.214294770 -65547.1734306138
 814772.225882698 962452.270025733 -37165.5589413420
 691721.665560922 1054654.95217627 -27811.8708945478
 605455.375303828 1106284.11468340 -33296.8021562114
 185901.742567207 -1247190.69921744 38798.6187245478
 227267.452623100 -1240798.43308284 17837.7228457621
 302091.127300907 -1224683.00077630 -21022.1153685064
 409957.868321568 -1190435.62087035 -79668.1221268924
 552131.750629981 -1123029.11213015 -159704.646686911
 726179.660532459 -998800.291706048 -258090.117664024
 916768.819928878 -788318.135939656 -360053.993553456
 1085483.37208127 -475171.886351291 -432997.642343922
 1178955.87209850 -92049.2277798663 -439476.304513155
 1171224.10959640 279310.887524700 -376522.169505644
 1085436.81255348 578257.425015706 -281059.970979328
 959754.114855464 796515.408680032 -189696.266890629
 821353.585361398 949992.074231239 -120178.107951317
 687334.338700619 1055103.26710755 -76668.3344081081
 572491.564431531 1122732.52747343 -57223.3459944968
 496217.869471831 1158512.17287544 -56274.3479324050
 93793.0426844523 -1257909.56961070 20391.4380262484
 119213.882277201 -1255920.96923341 15.2043745376999
 169785.248941761 -1249381.55043639 -42049.2757357395
 250739.554616774 -1231349.54480408 -111612.746495732
 370442.289749019 -1186411.89135374 -216214.627023480
 536503.905049664 -1083579.66905007 -359955.680059040
 743331.233840651 -871539.154823436 -528609.127168212
 947069.167561937 -502758.960149516 -664712.607644742
 1062028.90173551 -18719.7469682517 -680656.751873414
 1043152.91354345 427923.471159481 -565917.779112473
 936300.112713702 742351.244722056 -404729.736133728
 800886.370300090 938319.832183821 -263981.713982289
 667417.117174122 1057934.86901931 -163944.001216998
 548301.989805910 1131551.11804377 -102500.859253662
 451761.828717109 1175693.48389295 -72149.2409162592
 389731.730569507 1198109.96336515 -64738.8970511749
 1487.65509833768 -1261562.61752350 -2641.94408107350
 10337.5489645339 -1261322.75134922 -22527.3817650760
 33439.6307235365 -1259302.86522334 -67731.2014976967
 78561.2914888286 -1250401.39828110 -147898.267654569
 157111.002707347 -1220596.31074744 -277507.134929872
 283682.392992375 -1135129.44617721 -471757.216422274
 466679.054901349 -921841.833821640 -723856.148728249
 674345.201576192 -491651.928886693 -946090.038448832
 805129.759804444 104224.815472052 -965635.898584973
 795114.713174914 610927.885716627 -765577.652668584
 702856.784659713 911564.603194799 -516325.232173553
 593180.938066779 1066410.53729776 -320084.944309288
 490936.419607164 1146446.25465758 -190241.551727980
 402670.475692226 1190231.40673871 -112938.555584628
 332230.737032484 1214815.69401885 -73450.6491143369
 287103.407528382 1226965.58850615 -60634.2224021450
 -92140.1810192972 -1257922.89109278 -26260.5793057517
 -100831.145763802 -1256720.78098649 -45115.2923032994
 -108300.540666698 -1253547.20518037 -91868.5375672358
 -106909.970423720 -1244228.12131445 -178930.353135722
 -87334.4560566478 -1215563.30337288 -326079.712949851
 -36130.9212507847 -1130724.03553796 -558307.391053784
 63746.3289104968 -903430.024647507 -878236.885489782
 213401.392376620 -413719.470681381 -1172538.04894758
 350962.281293019 266322.939710713 -1182136.62485027
 402543.301224734 790084.239378591 -897371.281156021
 387476.117052727 1052710.03759871 -577246.278785422
 347036.479366815 1163358.78446764 -343091.025107945
 300318.093300315 1209671.78389718 -195070.881985067
 254673.102950909 1230820.25441472 -108501.349645045
 215053.877802746 1241484.64223988 -63380.9406956823
 188096.973011722 1246588.91048979 -46744.4960039635
 -188096.966524432 -1246588.90803549 -46744.5875599550
 -215053.862424010 -1241484.63953023 -63381.0459518617
 -254673.072952485 -1230820.24998608 -108501.470294625
 -300318.035949918 -1209671.77312843 -195071.037056906
 -347036.375615115 -1163358.75533915 -343091.228822055
 -387475.950342786 -1052709.94695987 -577246.555985101
 -402543.040585446 -790084.003428842 -897371.605813907
 -350961.905528728 -266322.497894842 -1182136.83594652
 -213400.969959230 413719.914966401 -1172537.96906523
 -63745.9831994468 903430.273239619 -878236.654859655
 36131.1609763619 1130724.13672203 -558307.170614600
 87334.6103914378 1215563.33779084 -326079.543310411
 106910.060130589 1244228.13233511 -178930.222901883
 108300.592568913 1253547.20798416 -91868.4381237135
 100831.176932179 1256720.78148073 -45115.2088754780
 92140.2025945273 1257922.89102541 -26260.5068316778
 -287103.422030718 -1226965.57951100 -60634.3357549416
 -332230.743628232 -1214815.68490140 -73450.7700758130
 -402670.472637489 -1190231.39488624 -112938.691386110
 -490936.401030243 -1146446.23515961 -190241.717167321
 -593180.895175896 -1066410.49681966 -320085.158653330
 -702856.708042170 -911564.501716120 -516325.515629548
 -795114.577821201 -610927.653096472 -765577.978874264
 -805129.510749019 -104224.417235030 -965636.149226000
 -674344.859536284 491652.334409977 -946090.071507551
 -466678.723072136 921842.089740093 -723856.036746488
 -283682.134079100 1135129.56848223 -471757.077827794
 -157110.825175764 1220596.36135671 -277507.012838039
 -78561.1792955433 1250401.41668296 -147898.171671881
 -33439.5574040401 1259302.87145994 -67731.1217412130
 -10337.5045500831 1261322.75285434 -22527.3178734614
 -1487.62077449620 1261562.61767747 -2641.88988396672
 -389731.769485848 -1198109.94329998 -64739.0341146528
 -451761.860801710 -1175693.46307158 -72149.3793091287
 -548302.015622493 -1131551.09191683 -102501.009580851
 -667417.136154939 -1057934.83048612 -163944.172601517
 -800886.378855081 -938319.766091726 -263981.922951021
 -936300.102769900 -742351.121998904 -404729.984235166
 -1043152.86090546 -427923.245397182 -565918.046851708
 -1062028.75976110 18720.0792460417 -680656.964257536
 -947068.933147252 502759.298850553 -664712.685455589
 -743330.970286134 871539.397580120 -528609.097536269
 -536503.675059024 1083579.80772833 -359955.605388430
 -370442.113534072 1186411.96019028 -216214.551214370
 -250739.427278178 1231349.57677056 -111612.679898481
 -169785.164397647 1249381.56382377 -42049.2193350998
 -119213.820909295 1255920.97505799 15.2495912289607
 -93792.9947094479 1257909.57250532 20391.4801294603
 -496217.930175244 -1158512.13887979 -56274.5125232521
 -572491.621414010 -1122732.49009995 -57223.5091870020
 -687334.386935286 -1055103.22345251 -76668.5027594848
 -821353.632113665 -949992.011816365 -120178.281805572
 -959754.151804310 -796515.318837285 -189696.457191169
 -1085436.83461084 -578257.284056702 -281060.175806396
 -1171224.09361650 -279310.680643169 -376522.372681653
 -1178955.79087532 92049.5006437377 -439476.465253547
 -1085483.21797975 475172.160341303 -432997.727984643
 -916768.627926789 788318.353805024 -360054.005424637
 -726179.471516821 998800.436127799 -258090.090583546
 -552131.590719224 1123029.19617705 -159704.608520678
 -409957.741842909 1190435.66701220 -79668.0834916899
 -302091.031595006 1224683.02496789 -21022.0813507290
 -227267.378850438 1240798.44618295 17837.7515224819
 -185901.686199522 1247190.70680177 38798.6450075916
 -605455.456458138 -1106284.06429242 -33297.0007156624
 -691721.741379597 -1054654.89742291 -27812.0614771930
 -814772.297002463 -962452.202684786 -37165.7436826782
 -947510.747969348 -830347.130925067 -65547.3536157731
 -1071383.26180294 -656626.057029439 -111935.510350466
 -1170762.20293582 -437922.869554928 -170554.552611741
 -1228485.14316855 -173025.376995761 -228988.870577970
 -1226145.59145699 126736.117207365 -268429.461990942
 -1154772.00459535 428917.294433681 -272178.255666177
 -1026723.21796449 693021.827513999 -238976.172872418
 -869001.342109736 896148.078723475 -182495.806337176
 -707105.008754245 1037982.62716753 -118928.563482436
 -558009.623998773 1129877.39469444 -59596.6727444737
 -431729.177830822 1185348.22329747 -10437.3106693389
 -335470.561455659 1215865.80380522 26063.0092787935
 -278125.292634072 1229583.86513019 48158.8115266437
 -713126.258400430 -1040664.10485676 4311.77010381457
 -803680.627516377 -972333.684246129 14631.6900658717
 -924181.751351520 -858661.663917185 11733.2138292326
 -1043160.87630960 -709437.845400949 -7922.15682808395
 -1143448.97787370 -531344.274608312 -41798.6573888169
 -1215186.21077985 -328308.893041778 -84173.4803791726
 -1250926.98419963 -103461.759394109 -126596.901475745
 -1244109.79513584 136069.179753954 -158825.145638554
 -1191963.85102720 375685.900025245 -172138.645531940
 -1099165.25149777 597150.877400090 -163694.869922959
 -976603.424816545 786771.194248970 -137063.012718966
 -837108.697945896 938618.554755750 -98962.9597905537
 -693083.951105342 1052619.91097409 -56350.6047888460
 -556756.144480491 1131964.21036708 -15134.4953736818
 -442034.819899240 1181421.10751795 19970.3687161929
 -368063.623474851 1205879.46849948 43969.3921374002
 -809565.500746693 -966106.133972142 52840.0304798625
 -898390.103668067 -883317.796797230 64763.5886244731
 -1007979.41712861 -756034.342576914 62761.4404576232
 -1107856.52829302 -601858.551854593 44380.4821626352
 -1185353.19920993 -431634.431845091 13376.8937909274
 -1236104.80264251 -250969.065801795 -24675.4090878586
 -1258421.50657067 -62399.5874675453 -63490.4260753715
 -1250986.00833302 131319.011596332 -96637.2343733690
 -1213200.83612367 324983.430975141 -118654.674325947
 -1146247.07548577 511547.692614676 -126435.877186280
 -1053065.98874708 684312.754101302 -119655.793162675
 -937817.326365763 837864.729150907 -100153.826347297
 -806368.744288257 967597.789021400 -71227.7883612314
 -668177.906556411 1069441.47009221 -37184.1116051925
 -539325.744993464 1140467.96331164 -3161.70302036947
 -447945.210554304 1179129.27068889 23423.9677489443
 -877832.489948772 -900578.462396568 99589.0735810191
 -960799.308298352 -810218.306109468 109363.689300724
 -1057896.56191450 -679454.158507743 103664.563352073
 -1142480.49103222 -528803.832843863 81573.6777359395
 -1205206.43989576 -369798.747840490 47704.8660867840
 -1244363.53928422 -207488.747876554 7565.21801521284
 -1260380.28138571 -43208.4264280046 -33526.2449232139
 -1253608.36628175 122560.555355010 -70671.1056827605
 -1224086.56570936 288475.149146369 -99717.5957081335
 -1171843.76610974 452187.244580423 -117721.342956413
 -1096906.30661596 610881.838130081 -123163.977152008
 -999370.444024089 761169.031710427 -115887.236980866
 -880552.920054844 898196.557789875 -97051.1693709079
 -745880.412367128 1015094.57524842 -69244.8168979789
 -609566.139867880 1103913.32737470 -36795.6205279624
 -502317.622217548 1157223.55582759 -7751.07517831918
 513644.497029000 -1152088.53339032 20267.5312094790
 627786.966119184 -1094262.42972548 -4763.50512775978
 769331.252546476 -999099.080151338 -38469.2450533321
 905065.691825693 -876030.704321744 -70538.8508878814
 1021321.37225396 -734486.906090678 -94768.5088918116
 1114047.79620885 -582117.345779797 -107639.836600822
 1183323.00941217 -423933.481457709 -107594.096556574
 1230206.65389889 -263050.154839558 -94581.3705796487
 1255516.33082163 -101687.835576940 -69912.5028505539
 1259681.30335135 58631.3371337452 -36260.3255901308
 1242675.45646829 217487.217497400 2539.88888049066
 1203719.37235738 375302.172193105 41921.1531049463
 1141522.62039117 531557.649241939 76954.5553337809
 1056500.31976525 681758.970180501 102767.756778595
 956668.511195673 814182.120598390 115940.782744975
 869408.680109069 906492.212397507 118109.469275896
 457342.354299453 -1175190.58493154 36255.9094638333
 554070.276368340 -1133311.08642390 12709.8840570037
 688148.686293423 -1057122.64136946 -22193.1875955034
 828604.590419024 -949433.720973385 -59493.4713570050
 959038.805396104 -814388.719542748 -92547.3616311769
 1070617.89965364 -657134.064916594 -116196.233098890
 1158529.84731049 -483015.330093324 -126705.227613201
 1219858.20926621 -297684.387467575 -121981.087316220
 1252826.85570544 -107450.359753688 -102121.108155812
 1256980.20275502 81581.3451495184 -69962.0248741749
 1232968.00383173 265324.303733304 -30697.6594318955
 1181574.54280440 441975.350530506 9424.44900025433
 1103577.60929970 609678.707455639 44246.6365561609
 1002210.34003947 763174.254750021 68475.7046234832
 889259.581480916 891349.541458721 79137.9972242696
 796642.011563426 975024.200511612 78985.7249623153
 375660.531335766 -1203384.11985880 47908.8320370405
 453862.681015042 -1176816.14972560 25726.3958961137
 573611.638855165 -1123566.02191089 -10886.3720393588
 713357.147731496 -1039020.48750388 -55744.3920636440
 858182.538551591 -918959.533777508 -102886.037553826
 995424.092878910 -761266.264534876 -145444.081063026
 1112938.31423328 -567486.690122524 -175717.375817887
 1199109.26069858 -344839.740931049 -186472.423967899
 1244921.57456107 -107227.274596189 -173844.803471424
 1247142.17587541 128275.591233328 -140467.778388662
 1208713.20026276 348630.703321422 -94965.5891948628
 1135444.25778525 547753.711334351 -47766.5165245842
 1033810.52252445 722998.010246895 -7688.40787800541
 912820.444285532 870594.118565777 19342.9090882271
 789229.873536041 983713.434652247 31201.2198786825
 695987.774420072 1051733.77873152 31725.5016014709
 285285.039051445 -1227939.83605943 48224.8528323401
 346308.828339508 -1212810.68552510 26643.3370509397
 447365.036558188 -1179515.07326983 -12575.6476379993
 577743.339355106 -1119508.89003789 -66797.5289654910
 728956.278865917 -1021084.69189668 -132507.457885106
 889564.816310553 -871315.339625615 -202567.143027749
 1041642.38631496 -660849.078073658 -264214.053298142
 1160651.61194979 -392934.403436866 -300066.361315336
 1222890.74410318 -91897.8845441028 -296044.654945913
 1218978.67772546 203563.297955955 -253381.921010445
 1158023.93283271 463486.991943118 -188970.395049440
 1057059.88196714 677618.334632518 -122503.997585476
 932112.005188470 847438.907385329 -67556.9311917176
 798134.763385305 976521.319553722 -30601.3537591863
 673330.857442070 1066780.71464186 -12405.4102502246
 585705.155614289 1117332.17740798 -8228.42235982400
 193951.078653718 -1245989.54178940 37979.8862486587
 238711.164165386 -1238669.92693905 16224.1523218590
 318171.997827695 -1220492.64097920 -26715.6140282820
 430501.163101372 -1182247.77825252 -92240.8277516595
 575509.152132695 -1107924.17073715 -181225.491106712
 748357.128824008 -973606.595299666 -289138.783711618
 931054.138356177 -752185.543918721 -398628.310445316
 1085679.01928335 -432925.190318521 -474790.772440429
 1165409.58407979 -52093.8785598281 -480266.759281249
 1150427.17735125 312919.929727617 -412489.827886530
 1062757.14449245 605886.247786881 -308218.327637978
 937335.384161269 818887.362513656 -205852.607546339
 799761.226997592 967567.906945268 -125474.125459448
 666485.566031099 1068692.99719856 -72399.5782440112
 551808.318340487 1133616.87507105 -44382.3307561804
 475476.130555081 1168010.03897620 -34991.8425084167
 103668.620381147 -1257132.24778003 20512.4269346570
 132295.446833711 -1254608.99752520 -1899.73546762752
 187446.512989872 -1246589.43245310 -49274.9691338703
 273183.337054154 -1225027.51719028 -127388.686316833
 396189.529564880 -1172760.35053480 -243344.298876314
 560518.144226140 -1057351.87587735 -399219.052013911
 755326.546686473 -830074.844640521 -576200.478205855
 936105.274736998 -454320.177399608 -713336.892313941
 1030451.11470513 21194.0396758663 -727509.961309214
 1005495.03028970 457020.651857755 -609640.302766460
 901276.650885606 765754.839913647 -439168.936328838
 770143.137285444 957623.683586902 -285282.070317329
 640632.232192493 1073004.68458091 -172628.852925682
 524745.564446455 1142804.89525671 -100938.074530993
 430285.895513484 1184278.22886182 -62358.2848147095
 369308.363998958 1205358.12198663 -47671.3851302127
 13717.8288184045 -1261491.62204006 -373.649853477272
 25600.9022084753 -1261088.88734404 -23427.3972612984
 53313.7276638973 -1258212.00171065 -74897.5040492260
 103708.631940219 -1246451.07942449 -164783.667824140
 186464.987404810 -1209295.49819046 -307220.828472550
 311840.466942831 -1109041.58643161 -514132.000230562
 480088.008044406 -876275.503402665 -770198.790954202
 655538.669231777 -441782.396606235 -983181.976090711
 757496.486563804 131176.718659863 -1000270.54952352
 743001.140067059 622324.810140106 -807595.546955334
 658179.341267200 922510.247036785 -554368.315977887
 556632.042334434 1078213.16291453 -345205.121172017
 461123.268726299 1156771.08430922 -201978.762408814
 378101.382490257 1198150.42296361 -114124.228058854
 311204.164091775 1220753.84548984 -66794.0707896874
 267972.672097398 1231851.08087599 -47780.6704912973
 -77380.9033482167 -1259015.80334127 -20996.0389810477
 -83258.2569994949 -1258044.87153618 -44052.1822600399
 -86108.8494266134 -1254823.04257591 -97743.6892587832
 -78832.4528750598 -1243889.30968602 -195126.268199557
 -53339.6656586048 -1209247.84438910 -355561.474047308
 421.041121731268 -1110201.49408452 -599167.669501465
 91494.3131840801 -863551.350177640 -915126.924082283
 212048.512659084 -377810.231358810 -1184839.35125342
 314903.348507175 262923.306947211 -1193003.20480788
 354010.205817230 772937.834788347 -932090.826394562
 342493.840239354 1046167.57440360 -616263.585313571
 309583.178873603 1165425.36751461 -370798.326629037
 270241.589047602 1214364.05426746 -209377.310545040
 230699.060432568 1235202.74040311 -112256.690380233
 195436.090148127 1244905.18720614 -59709.6345141313
 170943.769648929 1249356.79613236 -37884.7528043435
 -170943.763243249 -1249356.79366145 -37884.8631932722
 -195436.076218713 -1244905.18373083 -59709.7525643407
 -230699.030496101 -1235202.73352167 -112256.827621837
 -270241.534040942 -1214364.03704431 -209377.481433882
 -309583.082555650 -1165425.32384654 -370798.544295271
 -342493.684655011 -1046167.45826533 -616263.868936867
 -354009.976384716 -772937.570060938 -932091.133059069
 -314903.030640190 -262922.865806479 -1193003.38593345
 -212048.160188489 377810.675278588 -1184839.27278140
 -91494.0124906843 863551.623602598 -915126.696130445
 -420.821354840529 1110201.61891661 -599167.438353657
 53339.8108526039 1209247.89361673 -355561.284845040
 78832.5421908642 1243889.32700257 -195126.121725870
 86108.9039294732 1254823.04842813 -97743.5661133665
 83258.2893894168 1258044.87284162 -44052.0837624278
 77380.9273905702 1259015.80331793 -20995.9517723986
 -267972.686847452 -1231851.07261547 -47780.8007344116
 -311204.169412020 -1220753.83671215 -66794.2064260211
 -378101.381206218 -1198150.40852107 -114124.383940071
 -461123.249705154 -1156771.05962016 -201978.947233536
 -556632.001407369 -1078213.11058720 -345205.350604599
 -658179.269218449 -922510.125826382 -554368.603221552
 -743001.009048441 -622324.554468110 -807595.864512704
 -757496.264973439 -131176.317710486 -1000270.76991291
 -655538.370434603 441782.804551651 -983181.992008284
 -480087.709596175 876275.776073776 -770198.666760696
 -311840.227136120 1109041.72651565 -514131.843504978
 -186464.817308493 1209295.55979064 -307220.689237731
 -103708.516668023 1246451.10452592 -164783.550500627
 -53313.6556005087 1258212.01044310 -74897.4086481380
 -25600.8517133768 1261088.88977264 -23427.3217101559
 -13717.7923130575 1261491.62245765 -373.580209816681
 -369308.401432326 -1205358.10461157 -47671.5344586937
 -430285.929231920 -1184278.20835961 -62358.4415177726
 -524745.587998569 -1142804.86961468 -100938.242405706
 -640632.251963004 -1073004.64272096 -172629.039744275
 -770143.143183291 -957623.612698908 -285282.292349535
 -901276.636787304 -765754.706141260 -439169.198513320
 -1005494.97488299 -457020.416888762 -609640.570296005
 -1030450.98116863 -21193.7020010761 -727510.160288533
 -936105.059463149 454320.520827642 -713336.956088319
 -755326.301172455 830075.099166293 -576200.433373804
 -560517.922679600 1057352.02618016 -399218.964988637
 -396189.359208079 1172760.42779603 -243344.203886003
 -273183.210337138 1225027.55417078 -127388.602438376
 -187446.421216413 1246589.44912683 -49274.8964258772
 -132295.383193284 1254609.00432344 -1899.67767000634
 -103668.571172537 1257132.25099163 20512.4788048527
 -475476.188090051 -1168010.01032428 -34992.0170978337
 -551808.375884118 -1133616.84023090 -44382.5052017799
 -666485.614052314 -1068692.95479608 -72399.7620816722
 -799761.270978176 -967567.845788410 -125474.316729371
 -937335.421303225 -818887.268520570 -205852.812330023
 -1062757.16490736 -605886.103223571 -308218.541424074
 -1150427.16031397 -312919.717271900 -412490.036574665
 -1165409.50692047 52094.1526473059 -480266.916785140
 -1085678.87379779 432925.470485832 -474790.849651449
 -931053.955021976 752185.768666460 -398628.314564503
 -748356.946550995 973606.747150132 -289138.744155059
 -575508.991576304 1107924.26239187 -181225.440645638
 -430501.034992135 1182247.82920237 -92240.7726329710
 -318171.901891397 1220492.66701098 -26715.5673377802
 -238711.089673347 1238669.94075310 16224.1936820345
 -193951.021008300 1245989.54961138 37979.9240128921
 -585705.235548723 -1117332.13400931 -8228.62564286418
 -673330.932460122 -1066780.66492124 -12405.6141136996
 -798134.832456250 -976521.256842477 -30601.5534536592
 -932112.066679558 -847438.824482475 -67557.1227116491
 -1057059.93076836 -677618.225087117 -122504.182429534
 -1158023.96327037 -463486.844222419 -188970.570839157
 -1218978.67527382 -203563.110061866 -253382.083756094
 -1222890.69667324 91898.1047029340 -296044.782526225
 -1160651.51614984 392934.624702958 -300066.442121689
 -1041642.25554926 660849.272786722 -264214.081817132
 -889564.672509262 871315.486692887 -202567.141934668
 -728956.141905410 1021084.79200568 -132507.439912037
 -577743.219118333 1119508.95354197 -66797.5046023681
 -447364.934641558 1179515.11218119 -12575.6235748108
 -346308.748865505 1212810.70778581 26643.3567376921
 -285284.978145601 1227939.84944665 48224.8722585576
 -695987.878885006 -1051733.71708320 31725.2535759855
 -789229.970768636 -983713.364117123 31200.9842290787
 -912820.529245605 -870594.034351610 19342.6900434409
 -1033810.59065838 -722997.910723016 -7688.60531384959
 -1135444.30908773 -547753.589782087 -47766.6909055755
 -1208713.22888847 -348630.561804363 -94965.7443762694
 -1247142.17718361 -128275.430189775 -140467.913839108
 -1244921.54346052 107227.452581273 -173844.916404723
 -1199109.19757752 344839.917217486 -186472.503864196
 -1112938.22365614 567486.853072385 -175717.423251290
 -995423.987628390 761266.397489091 -145444.105507685
 -858182.425965431 918959.637912000 -102886.046535412
 -713357.039297511 1039020.56190352 -55744.3929498125
 -573611.541222556 1123566.07172477 -10886.3751643345
 -453862.599183724 1176816.18136785 25726.3921284777
 -375660.460726413 1203384.14199197 47908.8297500329
 -796642.143343488 -975024.116891712 78985.4280711637
 -889259.699692286 -891349.448243237 79137.7188110318
 -1002210.43924058 -763174.146539936 68475.4587367215
 -1103577.68009754 -609678.594332194 44246.4294899562
 -1181574.58932555 -441975.229823767 9424.27723118381
 -1232968.02835719 -265324.172997786 -30697.8043349714
 -1256980.20479407 -81581.2063123680 -69962.1501344682
 -1252826.83478882 107450.505038641 -102121.211895082
 -1219858.16568728 297684.530712842 -121981.173544454
 -1158529.78555231 483015.462240687 -126705.288537959
 -1070617.82334187 657134.181794833 -116196.275235105
 -959038.717870963 814388.818858684 -92547.3946760937
 -828604.494454446 949433.803150473 -59493.4964855304
 -688148.591871365 1057122.70230980 -22193.2126027224
 -554070.188155220 1133311.12984623 12709.8577196199
 -457342.274622157 1175190.61677386 36255.8824064061
 -869408.833519036 -906492.109711405 118109.128135755
 -956668.644929025 -814182.007342841 115940.474588462
 -1056500.42230482 -681758.850858791 102767.494201233
 -1141522.69048353 -531557.530173584 76954.3380581236
 -1203719.41529759 -375302.053898511 41920.9791648833
 -1242675.47764338 -217487.098201416 2539.74382294233
 -1259681.30566259 -58631.2115682341 -36260.4483312733
 -1255516.31476640 101687.959020993 -69912.6116270073
 -1230206.62097186 263050.276446540 -94581.4606429264
 -1183322.96258508 423933.593746645 -107594.169130514
 -1114047.73719305 582117.448377984 -107639.892548784
 -1021321.30025257 734487.000084633 -94768.5563678039
 -905065.606070303 876030.789448328 -70538.8939953606
 -769331.158949406 999099.150444588 -38469.2912518606
 -627786.871761190 1094262.48367379 -4763.54776719364
 -513644.408315883 1152088.57373445 20267.4861612634
 535473.154713066 -1140930.14925927 55644.6404589641
 653538.975794021 -1078613.44147027 32082.4237973713
 798500.329963006 -976695.245324089 -3612.71770868881
 934214.901843542 -846831.605817789 -40843.3529534414
 1046918.65046406 -700251.100292184 -71827.3399830906
 1133818.81177620 -545500.970571357 -91831.4983383624
 1196460.65796998 -387697.528799357 -98599.9544211983
 1237115.25216808 -229545.094677361 -91675.1508404539
 1257418.21479093 -72524.7238536790 -72034.9114034175
 1258148.42745065 82762.3806831743 -41980.3974023144
 1239130.32175066 236814.752384274 -4924.39744903205
 1198990.88572515 390825.367416098 35011.6987740625
 1135501.67184865 544795.865426651 73367.9028042582
 1048014.38043137 694290.149540752 105718.861035678
 944103.025941111 826855.812027497 128562.721829232
 852857.164719256 918906.648802871 140693.490580986
 476952.554988852 -1166478.87685624 58247.0690831395
 577770.795983759 -1120919.84533623 35623.5674608722
 716363.265646439 -1038446.78278482 -1175.53187109841
 858524.280225765 -923377.295895095 -43126.1012293893
 986867.305418908 -781588.765145864 -82227.4565576539
 1093139.90148196 -619697.328667745 -112115.153075024
 1173895.52873802 -443917.797316855 -128279.802592611
 1227808.63711100 -260012.779472718 -128174.631130604
 1254465.39974897 -73613.2911400696 -111566.460547712
 1254117.90938334 110401.355239832 -80927.3813002305
 1227288.29781112 289183.306167513 -41059.4740450762
 1174009.91627333 461785.414385725 2092.47973730412