# OOMMF OVF 2.0
#
# Segment count: 1
#
# Begin: Segment
# Begin: Header
#
# Title: Oxs_MinDriver::Magnetization
# Desc: Oxs vector field output
# Desc:  MIF source file: C:/Users/grl31/Documents/GitHub/phd-work/Skyrmions/stdprob3/drive-188/stdprob3.mif
# Desc:  Iteration: 514, State id: 1094
# Desc:  Stage: 0, Stage iteration: 514
# Desc:  Stage simulation time: -1 s
# Desc:  Total simulation time: -2 s
# meshunit: m
# meshtype: rectangular
# xbase: 3.1249999999999999e-09
# ybase: 3.1249999999999999e-09
# zbase: 3.1249999999999999e-09
# xnodes: 16
# ynodes: 16
# znodes: 16
# xstepsize: 6.2499999999999997e-09
# ystepsize: 6.2499999999999997e-09
# zstepsize: 6.2499999999999997e-09
# xmin: 0
# ymin: 0
# zmin: 0
# xmax: 9.9999999999999995e-08
# ymax: 9.9999999999999995e-08
# zmax: 9.9999999999999995e-08
# valuedim: 3
# valuelabels: Magnetization_x Magnetization_y Magnetization_z
# valueunits: A/m A/m A/m
#
# End: Header
#
# Begin: Data Text
 502314.086307490 -1157224.87868062 -7782.65884154851
 609557.900199126 -1103916.92407319 -36824.2035701795
 745868.626094264 -1015101.51740392 -69269.9999383547
 880540.092975207 -898206.728164771 -97073.4209848558
 999358.835308386 -761181.186252946 -115907.510130177
 1096897.25953461 -610894.166103209 -123183.402962772
 1171837.65541814 -452197.981875339 -117740.925131973
 1224083.05241529 -288482.973977393 -99738.0841694172
 1253606.71504988 -122564.806009273 -70693.0210749547
 1260379.67534550 43207.6624190410 -33550.0045189242
 1244363.39722876 207490.550453041 7539.10000888717
 1205206.79386264 369801.353123893 47675.7189146190
 1142482.38374165 528804.825159423 81540.7299885268
 1057902.23828216 679451.011216254 103627.257580987
 960811.595262501 810209.335818681 109322.191161421
 877852.352630412 900564.007900108 99544.6913456432
 447945.238398433 -1179129.85545067 23393.9799948999
 539322.748457959 -1140469.30245580 -3189.68190970749
 668171.872122735 -1069444.35135458 -37209.6705003285
 806360.890433051 -967602.618586993 -71251.0898342202
 937809.214868475 -837871.215590024 -100175.513537105
 1053058.94831868 -684319.917602648 -119676.784119586
 1146241.82918546 -511554.212949790 -126457.056575908
 1213197.43381280 -324988.101433906 -118676.667611495
 1250983.99741317 -131321.129859525 -96660.3847888381
 1258420.25173763 62399.9554451385 -63514.9312838282
 1236103.90487334 250970.922029205 -24701.4892595204
 1185352.98213433 431635.895608265 13348.8683657766
 1107858.42931544 601857.294859516 44350.0635632821
 1007985.94902873 756028.378336586 62728.3718053764
 898403.872713861 883306.390349861 64728.1482725285
 809586.691375728 966090.390118443 52803.2024317620
 368066.716539692 -1205879.50482233 43942.4958791995
 442036.576020395 -1181420.88790386 19944.4730084241
 556756.126941084 -1131963.88637820 -15159.3524956176
 693082.164430878 -1052619.80542918 -56374.5464283417
 837105.525941368 -938618.918253052 -98986.3407488625
 976599.517549321 -786771.972883920 -137086.381255509
 1099161.26994591 -597151.655270231 -163718.765503158
 1191960.20679245 -375686.132727033 -172163.370142635
 1244106.60305526 -136068.518907300 -158850.713928635
 1250924.21308703 103463.201426152 -126623.102087239
 1215184.01386409 328310.200816066 -84200.0914978050
 1143448.21064205 531343.803827571 -41825.6217227088
 1043163.35579197 709433.892615603 -7949.59496208604
 924189.857380453 858653.321875038 11705.1812038164
 803696.128363143 972321.300942345 14603.1471551260
 713148.408550279 1040649.04466894 4283.00487729109
 278129.628051800 -1229583.80115686 48135.4012278656
 335474.843749653 -1215865.12029632 26039.7653006872
 431733.158386285 -1185346.56572849 -10460.8787599491
 558012.754091615 -1129874.56840085 -59620.9432250589
 707106.623031679 -1037978.63467491 -118953.808438846
 869000.873616295 -896143.159410250 -182522.191569368
 1026720.40005556 -693016.537021774 -239003.620146329
 1154767.11568701 -428912.568238664 -272206.444181193
 1226139.67617083 -126732.859154131 -268458.018783684
 1228479.63477749 173026.906228299 -229017.264801121
 1170758.34367441 437922.471652656 -170582.063703439
 1071382.36789686 656623.059044551 -111961.649727266
 947514.453342810 830340.951407798 -65572.0675335293
 814782.122618813 962442.975666819 -37189.2749234759
 691738.262689625 1054643.46241492 -27834.7630770544
 605477.346999359 1106271.41428362 -33319.2306105858
 185905.330573809 -1247190.79470995 38778.3518726053
 227271.784934431 -1240797.93789798 17816.9582079724
 302096.297143631 -1224681.34345885 -21044.3615938457
 409963.320468912 -1190432.10140401 -79692.6517057446
 552136.296657548 -1123023.00414014 -159731.878484859
 726181.519034965 -998791.263546103 -258119.825265330
 916766.016541400 -788307.193328869 -360085.088249611
 1085475.16287989 -475162.316367308 -433028.722828281
 1178944.76498488 -92044.7071316700 -439507.046499535
 1171214.48311768 279310.340738887 -376552.518263613
 1085431.30092812 578253.790822129 -281088.732047871
 959753.673699959 796509.736233858 -189722.315037152
 821358.717639843 949984.718424283 -120201.175686107
 687345.242095224 1055094.67111866 -76688.8783658820
 572507.847637196 1122723.26507479 -57242.1642899106
 496238.104857233 1158502.63337234 -56292.2967733155
 93794.4327903919 -1257909.75465214 20373.6213640249
 119216.426737518 -1255920.72779372 -3.60314869043931
 169789.295959413 -1249380.28681092 -42070.4745020892
 250744.760862398 -1231346.23530225 -111637.559208265
 370447.444371951 -1186404.98178329 -216243.707601034
 536506.470669966 -1083567.56867281 -359988.280321328
 743327.233286047 -871522.468760224 -528642.262423607
 947055.757103527 -502744.338071764 -664742.773103102
 1062010.56033216 -18716.0812932857 -680685.469922006
 1043138.68096050 427918.102085155 -565948.072804185
 936293.449392375 742343.389096353 -404759.558514462
 800886.552529743 938312.196695432 -264008.299923639
 667422.953027367 1057927.70423339 -163966.476167074
 548312.598085940 1131544.26219826 -102519.795090458
 451776.385390608 1175686.87452015 -72165.7924738927
 389749.053746694 1198103.49575123 -64754.3009475189
 1485.83816977554 -1261562.58597947 -2657.98056559942
 10337.0348962120 -1261322.44540723 -22544.7408598230
 33440.8810018513 -1259301.73690975 -67751.5594864994
 78564.2125039647 -1250398.26822101 -147923.176894260
 157114.709034789 -1220588.96131594 -277537.360795893
 283684.461229814 -1135114.83231402 -471791.134758197
 466674.505560771 -921819.537182717 -723887.475818450
 674328.835020766 -491633.177248504 -946111.448090039
 805107.062642143 104223.480828035 -965654.966666036
 795098.634929382 610914.489713456 -765605.040416096
 702850.250136507 911552.223405012 -516355.982639284
 593181.379159163 1066401.93772142 -320112.776317626
 490941.662959709 1146440.20368568 -190264.483975424
 402679.329972673 1190226.64641580 -112957.152467296
 332242.422861697 1214811.54898439 -73466.3448396141
 287117.060257424 1226961.68557156 -60648.5512398729
 -92145.7888882825 -1257922.17058650 -26275.4116249217
 -100835.387361429 -1256719.85469758 -45131.6117982444
 -108302.886776094 -1253545.56647081 -91888.1298988060
 -106910.264557645 -1244224.56645486 -178954.895103157
 -87332.9008553084 -1215555.31856468 -326109.893833765
 -36128.4993200860 -1130707.75407184 -558340.520952616
 63746.6857680242 -903404.640706773 -878262.970938666
 213394.424217868 -413701.161180698 -1172545.77730229
 350948.728701721 266312.148276777 -1182143.07950510
 402532.630377560 790062.181852903 -897395.487622991
 387471.374887724 1052694.32897054 -577278.108293428
 347036.343894558 1163350.18358659 -343120.324790428
 300321.323129770 1209667.13379240 -195094.744201407
 254679.006868466 1230817.35779468 -108520.348924807
 215061.961518795 1241482.43676158 -63396.7100027595
 188106.599616888 1246586.92275187 -46758.7652055027
 -188106.625816233 -1246586.91879840 -46758.7652071584
 -215061.984837963 -1241482.43253025 -63396.7137577764
 -254679.028234435 -1230817.35280720 -108520.355349559
 -300321.339043520 -1209667.12907233 -195094.748970797
 -347036.356204128 -1163350.17919481 -343120.327230734
 -387471.390936368 -1052694.32476525 -577278.105190067
 -402532.651731285 -790062.178474128 -897395.481019294
 -350948.759000194 -266312.149041831 -1182143.07033789
 -213394.460081284 413701.159361312 -1172545.77141734
 -63746.7153495513 903404.639125493 -878262.970418106
 36128.4793133996 1130707.75617694 -558340.517984118
 87332.8864761625 1215555.32073052 -326109.889611497
 106910.248454136 1244224.56829184 -178954.891951602
 108302.872280821 1253545.56815945 -91888.1239469350
 100835.369247610 1256719.85638283 -45131.6053421900
 92145.7719339491 1257922.17189375 -26275.4084982371
 -287117.088812144 -1226961.67869157 -60648.5552454106
 -332242.450001314 -1214811.54141078 -73466.3473384092
 -402679.355885830 -1190226.63716162 -112957.157600885
 -490941.683672781 -1146440.19433838 -190264.486851532
 -593181.392928660 -1066401.93072956 -320112.774094439
 -702850.261187175 -911552.216621002 -516355.979573599
 -795098.647306541 -610914.488731298 -765605.028345843
 -805107.083241095 -104223.488502732 -965654.948663492
 -674328.862837803 491633.166366682 -946111.433918384
 -466674.528315138 921819.531945271 -723887.467818720
 -283684.478115054 1135114.83092286 -471791.127952298
 -157114.723005578 1220588.96032115 -277537.357261975
 -78564.2252246149 1250398.26733254 -147923.177648391
 -33440.8953036915 1259301.73668694 -67751.5565688025
 -10337.0476079676 1261322.44542738 -22544.7339038542
 -1485.85084738396 1261562.58597111 -2657.97744713654
 -389749.080929318 -1198103.48655256 -64754.3075348297
 -451776.413946022 -1175686.86327416 -72165.7969234026
 -548312.625280813 -1131544.24872874 -102519.798310046
 -667422.973150093 -1057927.69137238 -163966.477238324
 -800886.566633164 -938312.187186625 -264008.290935244
 -936293.455799385 -742343.384205368 -404759.552663950
 -1043138.68885290 -427918.106191106 -565948.055152617
 -1062010.57569873 18716.0661671404 -680685.446362874
 -947055.777586603 502744.319962820 -664742.757616742
 -743327.248075945 871522.461268905 -528642.253977666
 -536506.479982225 1083567.56537707 -359988.276363054
 -370447.450410075 1186404.98033541 -216243.705200791
 -250744.770910990 1231346.23293873 -111637.562707896
 -169789.301689546 1249380.28604608 -42070.4740898904
 -119216.436638044 1255920.72685393 -3.60256591429773
 -93794.4390634468 1257909.75420341 20373.6201896491
 -496238.136091152 -1158502.61942768 -56292.3084171163
 -572507.876352791 -1122723.25005534 -57242.1716756741
 -687345.268617490 -1055094.65344623 -76688.8837921356
 -821358.735206136 -949984.703205008 -120201.175934446
 -959753.682521628 -796509.727090643 -189722.308796615
 -1085431.30097223 -578253.793796168 -281088.725759356
 -1171214.48283173 -279310.360687500 -376552.504355986
 -1178944.77435005 92044.6838353286 -439507.026257053
 -1085475.17562165 475162.297868062 -433028.711187647
 -916766.027067591 788307.185249777 -360085.079137183
 -726181.526489694 998791.260486848 -258119.816130309
 -552136.296310301 1123023.00472608 -159731.875565626
 -409963.319704926 1190432.10166565 -79692.6517275698
 -302096.297077501 1224681.34331133 -21044.3711278877
 -227271.785353275 1240797.93794356 17816.9496914912
 -185905.324361743 1247190.79591442 38778.3429154321
 -605477.376932791 -1106271.39738307 -33319.2477952263
 -691738.292746550 -1054643.44231515 -27834.7776835530
 -814782.146891133 -962442.954735834 -37189.2848248846
 -947514.466420102 -830340.936191781 -65572.0712478976
 -1071382.36836062 -656623.058042391 -111961.651166815
 -1170758.33832461 -437922.487020500 -170582.060968118
 -1228479.63281279 -173026.930241121 -229017.257197871
 -1226139.68025724 126732.833074786 -268458.012431094
 -1154767.12296289 428912.552023085 -272206.438865834
 -1026720.40641284 693016.530773205 -239003.610954883
 -869000.874882046 896143.159581089 -182522.184704259
 -707106.619032042 1037978.63742347 -118953.808230523
 -558012.746238097 1129874.57221502 -59620.9444465984
 -431733.149077090 1185346.56902023 -10460.8899666112
 -335474.831987048 1215865.12393909 26039.7467499037
 -278129.609677032 1229583.80605629 48135.3822462423
 -713148.435563024 -1040649.02625150 4282.98199395363
 -803696.153794565 -972321.280331415 14603.1198534724
 -924189.875448745 -858653.302664721 11705.1638157226
 -1043163.36188713 -709433.883471253 -7949.61119802450
 -1143448.20789273 -531343.809396294 -41825.6261409850
 -1215184.00855623 -328310.219488628 -84200.0952938149
 -1250924.21080568 -103463.221465698 -126623.108250748
 -1244106.60442250 136068.496429179 -158850.722474854
 -1191960.20965831 375686.119741118 -172163.378638259
 -1099161.27363425 597151.647853339 -163718.767793219
 -976599.517897943 786771.972023702 -137086.383708939
 -837105.517833577 938618.925271149 -98986.3427668968
 -693082.148995076 1052619.81504648 -56374.5566264248
 -556756.109020372 1131963.89496979 -15159.3691252912
 -442036.558807449 1181420.89482963 19944.4442535054
 -368066.694906245 1205879.51280177 43942.4581096200
 -809586.718928624 -966090.369102145 52803.1645019561
 -898403.896244933 -883306.369085847 64728.1118468135
 -1007985.96372994 -756028.361528674 62728.3381467012
 -1107858.43120990 -601857.293418782 44350.0357915713
 -1185352.97789316 -431635.907906687 13348.8473040505
 -1236103.90083373 -250970.940218804 -24701.5065994302
 -1258420.24996198 -62399.9734730476 -63514.9487534326
 -1250983.99778700 131321.111876732 -96660.4043818178
 -1213197.43582809 324988.086897877 -118676.686815698
 -1146241.83099170 511554.205211306 -126457.071508029
 -1053058.94817812 684319.915447029 -119676.797682410
 -937809.207717639 837871.222023203 -100175.526673502
 -806360.873885293 967602.631015350 -71251.1083287209
 -668171.851737638 1069444.36306180 -37209.7000764698
 -539322.726874685 1140469.31254139 -3189.72518683408
 -447945.210832878 1179129.86699549 23393.9259220692
 -877852.388298980 -900563.977928759 99544.6479418124
 -960811.619345923 -810209.313519864 109322.144758004
 -1057902.25041825 -679450.998913953 103627.214349222
 -1142482.38484982 -528804.829157062 81540.6885364339
 -1205206.79002249 -369801.369731159 47675.6871748624
 -1244363.39515814 -207490.563802483 7539.07437193071
 -1260379.67406016 -43207.6766634689 -33550.0344604998
 -1253606.71538824 122564.788315808 -70693.0457510732
 -1224083.05349618 288482.959026176 -99738.1141486217
 -1171837.65685290 452197.971401012 -117740.951080168
 -1096897.25725519 610894.166288241 -123183.422342440
 -999358.828078087 761181.192413868 -115907.532010421
 -880540.079062657 898206.738829401 -97073.4485054258
 -745868.603778553 1015101.53098828 -69270.0411550905
 -609557.873489639 1103916.93707192 -36824.2560209523
 -502314.051310364 1157224.89344622 -7782.72211471002
 513641.997891381 -1152090.30142916 20230.3305453024
 627779.004459473 -1094266.84722137 -4797.86942484641
 769319.265795656 -999107.137420029 -38499.6902707343
 905052.595047010 -876042.084479744 -70565.5534805126
 1021309.63245729 -734500.145544066 -94792.4140669875
 1114038.77766798 -582130.474013925 -107662.175323126
 1183317.00887996 -423944.665587193 -107616.020807824
 1230203.24001715 -263058.066980515 -94603.7661339966
 1255514.69782822 -101691.829352847 -69936.0157510662
 1259680.58591616 58631.1624571958 -36285.5229229800
 1242675.03410408 217489.951119007 2512.30882228810
 1203719.23769361 375306.050408723 41890.2882764502
 1141523.80251876 531560.203258779 76919.3702103701
 1056505.14781639 681757.565105642 102727.435369732
 956680.076306385 814175.013868393 115895.251454775
 869428.243958294 906479.894911457 118059.983262179
 457343.403188031 -1175191.21499180 36222.2402045027
 554067.647329207 -1133312.72899102 12677.9891527172
 688142.479216205 -1057126.06800832 -22222.4110840684
 828596.301647393 -949439.295055495 -59519.9531228067
 959030.234482492 -814396.046165247 -92571.7033321877
 1070610.48132082 -657142.053741355 -116219.402035761
 1158524.32375597 -483022.551977192 -126728.199175093
 1219854.59489053 -297689.564978644 -122004.594775096
 1252824.65348022 -107452.739118118 -102145.618638925
 1256978.73888735 81581.7216101337 -69987.8818313759
 1232966.85414976 265326.448703828 -30725.2844612051
 1181574.02287108 441977.378985717 9394.45901131308
 1103579.17860722 609678.263622494 44213.5989242174
 1002216.59457594 763169.317199224 68439.1829380211
 889273.259301612 891339.427820123 79098.2024026980
 796663.324192729 975010.186454770 78943.7465197774
 375664.663713942 -1203383.99274417 47879.6132267344
 453864.920302980 -1176815.90718026 25697.9696635184
 573611.557177082 -1123565.79907153 -10913.6404831164
 713354.871969987 -1039020.65262950 -55770.4309200898
 858178.599482341 -918960.403013777 -102911.126717368
 995419.310341181 -761267.799969848 -145468.774133515
 1112933.49569729 -567488.430105067 -175742.273715944
 1199104.92979079 -344840.997641999 -186497.948019967
 1244917.87664972 -107227.538711009 -173871.119680345
 1247139.04908814 128276.316740543 -140494.874361896
 1208710.76696307 348631.549631926 -94993.4489727109
 1135443.36754768 547753.047759502 -47795.2788580516
 1033813.00041745 722994.148165607 -7718.34212228588
 912828.679623353 870586.177824668 19311.6430340390
 789245.600356142 983701.845549607 31168.7712257711
 696010.146702825 1051719.97457220 31692.2970374379
 285290.348162814 -1227939.58210865 48199.9051341028
 346313.608678881 -1212809.86803121 26618.4028236312
 447369.001478942 -1179513.30116830 -12600.7857589924
 577745.949330554 -1119506.01888931 -66823.0695322038
 728956.880719727 -1021080.87707692 -132533.540804391
 889562.961818766 -871311.028737674 -202593.827841015
 1041638.08922098 -660844.952854589 -264241.310717354
 1160645.49628901 -392931.293657706 -300094.087458355
 1222884.04484467 -91896.3557890134 -296072.801141881
 1218972.78205772 203563.283140697 -253410.294341806
 1158019.98939518 463485.375540032 -188998.523117690
 1057059.13828061 677614.519314522 -122531.515580875
 932116.019031307 847432.353080382 -67583.7623755126
 798144.942413689 976512.176041287 -30627.6323197568
 673347.660987368 1066769.80672884 -12431.3238842227
 585727.149520339 1117320.45778383 -8254.20204945558
 193955.585818055 -1245989.49308454 37958.4611367551
 238716.012439230 -1238669.28063623 16202.1459129126
 318177.233668660 -1220490.76482707 -26738.9578282521
 430506.175975424 -1182243.98240210 -92266.0795742162
 575512.656691624 -1107917.88200051 -181252.805909902
 748357.379689423 -973597.829641226 -289167.649126297
 931049.521419875 -752175.757327398 -398657.559406230
 1085669.49104756 -432917.701308176 -474819.387790263
 1165397.99103447 -52091.7362536251 -480295.122217427
 1150417.61556397 312917.221145550 -412518.549194577
 1062751.99249534 605880.895406170 -308246.612224628
 937335.467343220 818880.557377535 -205879.297959944
 799766.889072250 967560.039312998 -125498.702731453
 666496.851041270 1068684.42691406 -72422.1937143192
 551824.727582498 1133608.05703850 -44403.5354995441
 475496.229979603 1168001.24113853 -35012.3819953742
 103670.812316610 -1257132.37367172 20493.6248397642
 132298.426710830 -1254608.65311739 -1919.56551675480
 187450.571270694 -1246587.95087442 -49297.0078600351
 273188.043332765 -1225023.84686740 -127413.886626114
 396193.524581535 -1172753.07174640 -243372.871758513
 560518.887407475 -1057339.91293038 -399249.691675285
 755320.689667910 -830059.702829565 -576229.968343404
 936091.347634682 -454308.624685790 -713362.525886063
 1030433.88717011 21194.6505136686 -727534.344124085
 1005482.22974090 457012.762558446 -609667.328510332
 901271.223155387 765744.985622839 -439197.256622151
 770144.333865826 957614.776467650 -285308.737728326
 640638.799455321 1072996.96928136 -172652.435443035
 524756.540288361 1142798.03766978 -100958.652138577
 430300.452122050 1184271.96960161 -62376.7091023277
 369325.387939869 1205352.21783880 -47688.7795305319
 13716.7141749509 -1261491.62901125 -390.647850909652
 25600.7476928654 -1261088.54996877 -23445.7197413033
 53314.9293825269 -1258210.69305535 -74918.6298932206
 103710.971039780 -1246447.55848191 -164808.826703628
 186467.418280404 -1209287.66228408 -307250.195583836
 311840.595770332 -1109027.10431250 -514163.160532509
 480081.853357068 -876255.488883612 -770225.397658074
 655523.469987255 -441767.869127427 -983198.637621836
 757477.711952563 131172.908949838 -1000285.26669731
 742988.460995571 622309.848053518 -807618.740967539
 658175.017349890 922496.242538854 -554396.753198575
 556633.892282159 1078203.42076180 -345232.565583434
 461129.322221284 1156764.53270967 -202002.462786151
 378110.538139845 1198145.63878676 -114144.119965992
 311215.723209234 1220749.95830821 -66811.2553153646
 267985.895405758 1231847.58812539 -47796.5523043902
 -77385.9004693308 -1259015.23127500 -21011.9191188835
 -83262.2011210919 -1258044.00290997 -44069.5305816979
 -86111.3250931549 -1254821.28133702 -97764.1166960928
 -78833.4306095838 -1243885.35098025 -195151.107488546
 -53339.5345003132 -1209239.24518367 -355590.737907872
 421.224358595134 -1110185.20622620 -599197.848265069
 91492.3699270237 -863528.509262542 -915148.671449018
 212041.854709891 -377795.832248391 -1184845.13414450
 314893.704947742 262913.106934746 -1193007.99817317
 354003.442048958 772916.604613881 -932110.999961160
 342491.690303133 1046151.14418266 -616292.671153549
 309584.582055694 1165415.90145768 -370826.905849540
 270245.596727602 1214358.96320736 -209401.663905121
 230705.173595121 1235199.77799172 -112276.721739626
 195443.954530050 1244903.13785204 -59726.6182095498
 170952.866871060 1249355.08045525 -37900.2792626442
 -170952.892270795 -1249355.07693368 -37900.2807806614
 -195443.980871830 -1244903.13363353 -59726.6199389975
 -230705.199578084 -1235199.77269151 -112276.726659729
 -270245.620498498 -1214358.95663084 -209401.671365812
 -309584.603509202 -1165415.89424198 -370826.910616205
 -342491.710731058 -1046151.13693527 -616292.672103523
 -354003.467631409 -772916.602123370 -932110.992310441
 -314893.738933517 -262913.102841909 -1193007.99010462
 -212041.894789243 377795.831674463 -1184845.12715483
 -91492.3991418232 863528.512930097 -915148.665067573
 -421.246308833471 1110185.20953744 -599197.842114619
 53339.5143681230 1209239.24748228 -355590.733110996
 78833.4117006232 1243885.35344632 -195151.099408395
 86111.3047400686 1254821.28332103 -97764.1091580884
 83262.1830282655 1258044.00423887 -44069.5268291741
 77385.8816923225 1259015.23244354 -21011.9182558446
 -267985.923909402 -1231847.58180240 -47796.5554508851
 -311215.752755424 -1220749.95069640 -66811.2567653471
 -378110.567901711 -1198145.62882959 -114144.125895930
 -461129.346973497 -1156764.52262735 -202002.464018309
 -556633.914558837 -1078203.40962935 -345232.564433743
 -658175.036147635 -922496.232209649 -554396.748069481
 -742988.481809053 -622309.839111340 -807618.728710059
 -757477.735779355 -131172.911268296 -1000285.24835016
 -655523.499643256 441767.867742702 -983198.618471608
 -480081.873672746 876255.486834436 -770225.387326569
 -311840.614117089 1109027.10366134 -514163.150809709
 -186467.434444288 1209287.66142667 -307250.189148730
 -103710.985839424 1246447.55776635 -164808.822802245
 -53314.9434327105 1258210.69253253 -74918.6286748588
 -25600.7615015312 1261088.54969770 -23445.7192434699
 -13716.7228009389 1261491.62891887 -390.643264657501
 -369325.415827238 -1205352.20908787 -47688.7847401288
 -430300.481756000 -1184271.95837776 -62376.7177689038
 -524756.573291928 -1142798.02216322 -100958.656120672
 -640638.825430790 -1072996.95384804 -172652.434973992
 -770144.355637954 -957614.761909408 -285308.727821534
 -901271.234214029 -765744.977513579 -439197.248067430
 -1005482.24261312 -457012.762519907 -609667.307309948
 -1030433.90407570 -21194.6546585145 -727534.320059321
 -936091.365680429 454308.615850564 -713362.507832762
 -755320.702831130 830059.700489902 -576229.954459377
 -560518.895268815 1057339.91432312 -399249.676950092
 -396193.531484248 1172753.07069498 -243372.865587937
 -273188.048908525 1225023.84552217 -127413.887604881
 -187450.578769680 1246587.94966800 -49297.0098524953
 -132298.430500772 1254608.65271538 -1919.56705900489
 -103670.819318890 1257132.37316433 20493.6205423464
 -475496.258599244 -1168001.22919402 -35012.3917823679
 -551824.758508483 -1133608.04166369 -44403.5436807975
 -666496.881365222 -1068684.40758916 -72422.1998091195
 -799766.911067106 -967560.021178207 -125498.702378789
 -937335.480908143 -818880.544049511 -205879.289212954
 -1062751.99707194 -605880.892718256 -308246.601729025
 -1150417.61851899 -312917.232028325 -412518.532698578
 -1165397.99967429 52091.7217977110 -480295.102821443
 -1085669.50134425 432917.690331249 -474819.374255251
 -931049.528984319 752175.754100835 -398657.547827544
 -748357.381206928 973597.832223736 -289167.636503992
 -575512.653789453 1107917.88460765 -181252.799188537
 -430506.170473219 1182243.98443928 -92266.0791438069
 -318177.230011662 1220490.76567603 -26738.9625940207
 -238716.006050757 1238669.28199987 16202.1357865794
 -193955.580880706 1245989.49416344 37958.4509497485
 -585727.178323524 -1117320.44255993 -8254.21890839319
 -673347.688082562 -1066769.78943762 -12431.3400739401
 -798144.970879187 -976512.152441718 -30627.6429530254
 -932116.034570930 -847432.335561248 -67583.7677251607
 -1057059.14124369 -677614.515286347 -122531.512295220
 -1158019.98773582 -463485.381728152 -188998.518109531
 -1218972.78153998 -203563.298762218 -253410.284283591
 -1222884.04838631 91896.3355112996 -296072.792807524
 -1160645.50139123 392931.282325494 -300094.082562934
 -1041638.09269308 660844.951203115 -264241.301160566
 -889562.960797079 871311.031578145 -202593.820110877
 -728956.872171593 1021080.88383054 -132533.535788530
 -577745.934484701 1119506.02647174 -66823.0708574130
 -447368.987010374 1179513.30653044 -12600.7975105441
 -346313.589456920 1212809.87394565 26618.3834287975
 -285290.330115943 1227939.58731825 48199.8792319810
 -696010.172826977 -1051719.95812424 31692.2691436189
 -789245.625999978 -983701.825875648 31168.7428006161
 -912828.699057175 -870586.157913806 19311.6220296705
 -1033813.00827984 -722994.136779383 -7718.35558763511
 -1135443.36449572 -547753.053391126 -47795.2868207924
 -1208710.76287157 -348631.562465123 -94993.4539350597
 -1247139.04702298 -128276.333252358 -140494.877617981
 -1244917.87783792 107227.520664670 -173871.122302095
 -1199104.93263279 344840.987406705 -186497.948672456
 -1112933.49644648 567488.428762947 -175742.273305313
 -995419.305341844 761267.806052514 -145468.776511343
 -858178.586785120 918960.414305586 -102911.131767909
 -713354.856466475 1039020.66269682 -55770.4416668764
 -573611.534084669 1123565.81066416 -10913.6607322930
 -453864.898800956 1176815.91616302 25697.9380642166
 -375664.636979869 1203384.00270174 47879.5727139842
 -796663.354556420 -975010.164961374 78943.7055620052
 -889273.281674754 -891339.408947510 79098.1635404454
 -1002216.60639883 -763169.304690943 68439.1492853641
 -1103579.18209622 -609678.259278412 44213.5717404431
 -1181574.01933080 -441977.388919923 9394.43691426476
 -1232966.85022244 -265326.465306211 -30725.2986903611
 -1256978.73686581 -81581.7374389205 -69987.8996873380
 -1252824.65380247 107452.720195697 -102145.634592110
 -1219854.59535947 297689.555687034 -122004.612757853
 -1158524.32408860 483022.547404307 -126728.213563743
 -1070610.47794847 657142.056662463 -116219.416584893
 -959030.224225543 814396.056274295 -92571.7206588183
 -828596.283972788 949439.309093184 -59519.9752528286
 -688142.453029945 1057126.08437410 -22222.4434471943
 -554067.620307566 1133312.74269522 12677.9450350730
 -457343.373055487 1175191.22837831 36222.1863484667
 -869428.280591219 -906479.866107147 118059.934649814
 -956680.098924247 -814174.994225703 115895.202742918
 -1056505.15921950 -681757.554115115 102727.391033282
 -1141523.80310348 -531560.207862254 76919.3297198402
 -1203719.23353567 -375306.067573082 41890.2539749139
 -1242675.03110795 -217489.968531386 2512.28342870552
 -1259680.58432800 -58631.1798019662 -36285.5500310062
 -1255514.69796541 101691.810283664 -69936.0410160702
 -1230203.24068511 263058.054596105 -94603.7918845260
 -1183317.00988840 423944.656766779 -107616.044466514
 -1114038.77560892 582130.473304353 -107662.200465979
 -1021309.62613966 734500.151488825 -94792.4360712623
 -905052.579447645 876042.098083251 -70565.5846713700
 -769319.240897728 999107.154943199 -38499.7330484879
 -627778.974515828 1094266.86415772 -4797.92468081338
 -513641.958453732 1152090.32020230 20230.2627499123
 535472.163431129 -1140932.76180012 55600.5949652142
 653532.068750973 -1078618.84930778 32041.2851019122
 798488.962014852 -976704.403015846 -3649.32717862848
 934202.233116676 -846844.041773029 -40875.2672442634
 1046907.31790592 -700265.157718422 -71855.4626982453
 1133810.19368011 -545514.561532931 -91857.1651073024
 1196454.98434062 -387708.794808398 -98624.4989526708
 1237112.01702825 -229552.746745892 -91699.6439723617
 1257416.56924623 -72528.1473369301 -72060.1842064078
 1258147.48730173 82763.0598016075 -42007.2261352214
 1239129.46492196 236818.624603378 -4953.69782484056
 1198990.11404050 390830.684075239 34978.7612327612
 1135502.05146051 544800.177243782 73330.0001573719
 1048018.36097687 694290.831478642 105674.913290785
 944113.886060243 826851.213499397 128512.535582158
 852876.248229864 918897.348367286 140638.541260482
 476954.986394555 -1166479.81502445 58208.3586166765
 577769.063556289 -1120921.91437041 35586.5424061617
 716357.388295050 -1038450.79811025 -1209.56944545919
 858515.965403063 -923383.594270936 -43156.7595897458
 986858.579258874 -781596.861025047 -82255.2265689229
 1093132.32979623 -619706.000319540 -112141.043517476
 1173889.86606326 -443925.513107531 -128304.918398117
 1227804.85468587 -260018.196596371 -128199.871948206
 1254462.94758268 -73615.6431515246 -111592.477992500
 1254116.08487288 110402.028820755 -80954.7318835820
 1227286.67778532 289186.013070537 -41088.8220078959
 1174008.84323232 461788.287225601 2060.27000858823