# OOMMF OVF 2.0
#
# Segment count: 1
#
# Begin: Segment
# Begin: Header
#
# Title: Oxs_MinDriver::Magnetization
# Desc: Oxs vector field output
# Desc:  MIF source file: C:/Users/grl31/Documents/GitHub/phd-work/Skyrmions/stdprob3/drive-58/stdprob3.mif
# Desc:  Iteration: 507, State id: 1079
# Desc:  Stage: 0, Stage iteration: 507
# Desc:  Stage simulation time: -1 s
# Desc:  Total simulation time: -2 s
# meshunit: m
# meshtype: rectangular
# xbase: 3.1249999999999999e-09
# ybase: 3.1249999999999999e-09
# zbase: 3.1249999999999999e-09
# xnodes: 16
# ynodes: 16
# znodes: 16
# xstepsize: 6.2499999999999997e-09
# ystepsize: 6.2499999999999997e-09
# zstepsize: 6.2499999999999997e-09
# xmin: 0
# ymin: 0
# zmin: 0
# xmax: 9.9999999999999995e-08
# ymax: 9.9999999999999995e-08
# zmax: 9.9999999999999995e-08
# valuedim: 3
# valuelabels: Magnetization_x Magnetization_y Magnetization_z
# valueunits: A/m A/m A/m
#
# End: Header
#
# Begin: Data Text
 501891.800403395 -1157377.20771051 -11491.3306021969
 608586.935666495 -1104335.36924932 -40184.1371684905
 744483.171543433 -1015911.55475291 -72235.3869451374
 879032.826450855 -899394.871167872 -99697.4756836991
 997993.667332197 -762602.610361098 -118301.857780116
 1095831.56117266 -612337.687340936 -125479.787690302
 1171115.85595325 -453457.076877267 -120057.329154736
 1223665.71192496 -289403.780394036 -102162.166538157
 1253408.36859372 -123069.754789924 -73285.2503177654
 1260305.13381520 43108.4156824402 -36360.2130816926
 1244344.98115686 207690.104899687 4451.86651263580
 1205248.24300198 370094.096433199 44231.9278903520
 1142705.65596737 528907.998168236 77650.1398118760
 1058569.01150632 679069.354727951 99226.4595097680
 962249.639663302 809147.100321657 104431.948788933
 880171.838099155 898861.012443660 94317.7960136175
 447938.581180616 -1179197.04302551 19869.3766572256
 538962.323756631 -1140625.72821824 -6480.17101754509
 667456.509626299 -1069782.08564364 -40218.5021150336
 805432.786384909 -968169.344628174 -73997.1462790770
 936851.594274832 -838632.337901155 -102734.235044131
 1052226.81387863 -685161.434038424 -122155.525377272
 1145620.07155668 -512321.828820467 -128959.010074761
 1212792.13621271 -325541.049285589 -121275.267427415
 1250742.64223723 -131577.629960060 -99396.1825347884
 1258269.15789446 62432.3188216721 -66410.5622403540
 1235996.82779361 251175.966134870 -27783.2078655498
 1185327.82861959 431794.649372770 10037.4494749644
 1108083.15293250 601697.649876850 40756.5361482317
 1008753.16200349 755318.643253218 58823.7725840788
 900015.774213679 881960.947831757 60546.8709779002
 812063.307797815 964237.700046730 48458.9811698243
 368418.287434978 -1205883.32521131 40777.4739256462
 442230.382037789 -1181395.88071374 16896.5426720792
 556742.088965494 -1131927.81098357 -18086.1277013271
 692860.755796775 -1052610.74962122 -59194.7107226008
 836721.887641377 -938666.375207892 -101741.583017373
 976130.553246433 -786869.062022793 -139841.528771450
 1098684.50670304 -597249.718158224 -166536.962292403
 1191524.05956360 -375721.682445837 -175080.163753926
 1243725.12260789 -136000.773559372 -161867.352805289
 1250594.28323907 103620.015988538 -129716.082022411
 1214924.31735396 328450.296774505 -87342.6388982079
 1143358.65189539 531276.190988728 -45011.4756857385
 1043455.97406617 708959.643579391 -11193.0728738317
 925141.620099457 857666.603414354 8391.13022134606
 805511.451487997 970862.836136032 11228.7955967231
 715739.773855379 1038876.90687288 882.840094609434
 278627.056166081 -1229576.03813809 45377.9784456774
 335964.808316674 -1215785.39630147 23301.2581586111
 432185.994965621 -1185153.77912376 -13236.9370779279
 558364.335053070 -1129546.39162519 -62479.1919459257
 707279.237871059 -1037515.95511172 -121926.836603362
 868929.390721580 -895574.326959053 -185628.041391965
 1026375.01045759 -692406.294939008 -242233.960368818
 1154181.25582717 -428369.866241496 -275525.529329718
 1225436.37360196 -126363.764266828 -271822.229136143
 1227827.40598961 173192.600800196 -232365.262136649
 1170303.03925317 437862.430355084 -173829.569743719
 1071277.29060855 656260.321798979 -115051.238922713
 947950.091439857 829607.310021959 -68496.4686407252
 815935.145735777 961353.830525211 -39976.0103886605
 693674.713669688 1053296.28852765 -30524.5984101660
 608040.986637763 1104781.83866829 -35953.8375731729
 186324.032547756 -1247200.43321748 36384.9583788123
 227778.125137436 -1240737.87261725 15365.1580222519
 302700.712148619 -1224484.15368457 -23669.9632246022
 410601.129539851 -1190015.05713237 -82585.1508310563
 552668.559336878 -1122300.15066144 -162939.455825675
 726399.934534191 -997722.833330839 -261613.672956823
 916438.485795128 -787011.164358977 -363735.288151719
 1084513.23651066 -474023.798600469 -436671.397176999
 1177639.74101116 -91499.6779030515 -443104.818585587
 1170079.77196277 279255.913069990 -380103.792638216
 1084778.01352874 577831.677394735 -284458.511707370
 959695.677534928 795845.509427642 -192778.532424089
 821954.745622713 949121.932852878 -122912.097227536
 688618.707018768 1054085.37196450 -79105.8523322143
 574411.375996989 1121635.33246176 -59457.4050695610
 498604.262740341 1157381.52967281 -58405.6064804594
 93957.0892298625 -1257929.99183241 18265.5947322516
 119514.375780368 -1255890.43361479 -2227.92630748454
 170263.309390353 -1249228.92225333 -44575.0625370531
 251355.709675716 -1230952.64823944 -114565.771173986
 371053.332831596 -1185586.07981244 -219669.074902416
 536810.324672245 -1082136.43587562 -363819.791098057
 742862.823439006 -869550.997173242 -532527.294874359
 945489.638891381 -501011.875797919 -668270.808862284
 1059863.69056278 -18268.4916292811 -684035.562349794
 1041467.25665175 427299.358555858 -569482.785006702
 935506.624234817 741425.345821037 -408246.547451275
 800902.258068555 937416.460008520 -267124.286512361
 668102.937144588 1057085.48413573 -166607.849536733
 549553.699056351 1130737.68457038 -104749.469998003
 453481.038649787 1174908.93334290 -74117.3181861487
 391777.895236130 1197341.95144653 -66571.4881126190
 1273.28754613036 -1261557.38021197 -4559.17651410537
 10277.2544045938 -1261284.50465356 -24600.9609911125
 33588.8967190848 -1259165.94462190 -70159.3959536622
 78909.4209602169 -1250025.17437713 -150863.506608141
 157554.389532541 -1219717.28927569 -281097.455520221
 283935.502756980 -1133387.43594329 -475776.188179885
 466153.861712258 -919189.661060423 -727557.815660945
 672428.295879022 -489416.385917940 -948610.151229266
 802462.625485440 104089.955567855 -967867.990362245
 793218.943043756 609356.660958290 -768789.697551459
 702083.267910160 910101.995368684 -519945.068123051
 593230.694791414 1065390.64377453 -323372.153770151
 491555.148759517 1145726.86539555 -192958.328552682
 403717.265217553 1189665.01859066 -115147.489012523
 333613.275659989 1214322.30732055 -75318.9694967931
 288718.775853062 1226500.87331839 -62341.8570310445
 -92802.9082362559 -1257835.82066220 -28037.4642378039
 -101331.490965873 -1256608.92393208 -47067.7400332280
 -108575.987696534 -1253349.75358092 -94207.6483801573
 -106940.313433858 -1243801.61774565 -181853.611388163
 -87142.4866539894 -1214609.33368538 -329666.171244589
 -35831.5014940727 -1128785.97256885 -562234.615219857
 63807.9794991504 -900415.315018944 -881323.001600733
 212604.068671318 -411535.937522232 -1173450.94189363
 349386.717720464 265076.610993186 -1182883.23291179
 401297.572158054 787491.579800543 -900203.699860343
 386922.973106682 1050851.90998577 -580990.797758870
 347024.438244212 1162336.17455992 -346551.709690837
 300702.840409895 1209116.95723412 -197897.489668982
 255373.872240456 1230473.96630025 -110758.451385007
 216012.750240129 1241220.86769602 -65258.5645611210
 189238.298017428 1246351.17557162 -48446.3067080529
 -189238.362453750 -1246351.16716872 -48446.2711871045
 -216012.832534086 -1241220.85559103 -65258.5223968349
 -255373.991278401 -1230473.94602252 -110758.402197145
 -300703.009994288 -1209116.92395173 -197897.435336664
 -347024.668139677 -1162336.12342456 -346551.650989973
 -386923.280177912 -1050851.84520294 -580990.710432536
 -401297.987207840 -787491.510942345 -900203.575073790
 -349387.223767198 -265076.571013199 -1182883.09240055
 -212604.583881813 411535.934721271 -1173450.84953077
 -63808.4080946805 900415.308559332 -881322.977169765
 35831.1804547369 1128785.97408178 -562234.632642298
 87142.2522489505 1214609.34197241 -329666.202673691
 106940.144121675 1243801.62654584 -181853.650763800
 108575.867286348 1253349.76075295 -94207.6917374031
 101331.406545076 1256608.92935790 -47067.7769236544
 92802.8428020500 1257835.82475782 -28037.4970818862
 -288718.845093617 -1226500.85916699 -62341.8147746757
 -333613.358739574 -1214322.28771178 -75318.9176494330
 -403717.380405323 -1189664.98478152 -115147.434458614
 -491555.305407200 -1145726.80870919 -192958.266083769
 -593230.893724901 -1065390.55785188 -323372.071906895
 -702083.504283394 -910101.890436630 -519944.932618614
 -793219.226655156 -609356.555480218 -768789.488531701
 -802462.952344187 -104089.911062386 -967867.724148827
 -672428.643908764 489416.346100946 -948609.925068874
 -466154.184876353 919189.588634740 -727557.700108187
 -283935.773856445 1133387.38202140 -475776.154844038
 -157554.602085041 1219717.26017971 -281097.462636161
 -78909.5803359730 1250025.16095594 -150863.534451604
 -33589.0144299796 1259165.93939239 -70159.4334544169
 -10277.3377150980 1261284.50329787 -24600.9956932751
 -1273.35388918159 1261557.38002784 -4559.20893673788
 -391777.971757696 -1197341.92945031 -66571.4333974009
 -453481.125211906 -1174908.90374228 -74117.2577920394
 -549553.807764148 -1130737.63757714 -104749.406954659
 -668103.071999751 -1057085.40980397 -166607.780379644
 -800902.410511630 -937416.357713926 -267124.188432967
 -935506.781644362 -741425.227040980 -408246.402462522
 -1041467.41054905 -427299.257262888 -569482.579563060
 -1059863.84677969 18268.5250235915 -684035.319411044
 -945489.819872736 501011.820451925 -668270.594298016
 -742863.024327386 869550.902300417 -532527.169555370
 -536810.523001095 1082136.35278319 -363819.745614959
 -371053.506689310 1185586.02546737 -219669.074539392
 -251355.851407146 1230952.61705873 -114565.795238385
 -170263.418577374 1249228.90618097 -44575.0959078311
 -119514.460118812 1255890.42552977 -2227.95963233645
 -93957.1583935165 1257929.98719566 18265.5582861241
 -498604.342629862 -1157381.49872335 -58405.5377725186
 -574411.464579970 -1121635.29101088 -59457.3312299525
 -688618.811804904 -1054085.30908792 -79105.7779961382
 -821954.857874442 -949121.845447968 -122912.021499135
 -959695.786247364 -795845.401063061 -192778.438588922
 -1084778.10517862 -577831.569172115 -284458.382038784
 -1170079.84217178 -279255.832995605 -380103.635341914
 -1177639.80394563 91499.6991204751 -443104.646943258
 -1084513.31934094 474023.746571225 -436671.247940174
 -916438.596996031 787011.075442127 -363735.200367417
 -726400.066124020 997722.745948027 -261613.640836829
 -552668.693166456 1122300.08401017 -162939.460976790
 -410601.247809957 1190015.01463884 -82585.1751223510
 -302700.811054580 1224484.12852567 -23669.9998854279
 -227778.207224517 1240737.85805552 15365.1169972360
 -186324.102666486 1247200.42396613 36384.9164241981
 -608041.066304671 -1104781.79778117 -35953.7466397820
 -693674.802039674 -1053296.23289882 -30524.5097474696
 -815935.237891924 -961353.755932854 -39975.9232413269
 -947950.180328483 -829607.215248276 -68496.3863437436
 -1071277.36509649 -656260.215295264 -115051.152847267
 -1170303.08838372 -437862.339449045 -173829.467958348
 -1227827.43494493 -173192.542704736 -232365.152436799
 -1225436.39624360 126363.776273183 -271822.121481003
 -1154181.29103089 428369.827714548 -275525.441759995
 -1026375.07181860 692406.222115850 -242233.908533833
 -868929.477143624 895574.245789008 -185628.028458293
 -707279.333919308 1037515.88768018 -121926.853239272
 -558364.426274300 1129546.34480751 -62479.2231250551
 -432186.080242638 1185153.74754879 -13236.9798108241
 -335964.881355727 1215785.37707072 23301.2084580197
 -278627.124291996 1229576.02463288 45377.9260843581
 -715739.853783642 -1038876.85171185 882.950728841833
 -805511.533841188 -970862.766587623 11228.9011749395
 -925141.696704238 -857666.519823413 8391.22828619386
 -1043456.03807729 -708959.550694945 -11192.9887614125
 -1143358.69863533 -531276.097010525 -45011.3976582475
 -1214924.34251954 -328450.224239653 -87342.5616143136
 -1250594.29444751 -103619.974296723 -129716.007266056
 -1243725.13089260 136000.781088740 -161867.282822662
 -1191524.07554398 375721.653766668 -175080.116543397
 -1098684.54183193 597249.661023221 -166536.935441249
 -976130.608078280 786868.993085836 -139841.533929530
 -836721.953107655 938666.314147243 -101741.607967901
 -692860.826174365 1052610.70089008 -59194.7535144096
 -556742.156483399 1131927.77695112 -18086.1792442568
 -442230.443331460 1181395.85860840 16896.4840345519
 -368418.344666276 1205883.30985805 40777.4108804280
 -812063.386247964 -964237.627609461 48459.1078799462
 -900015.847579421 -881960.864550102 60546.9935412678
 -1008753.22289235 -755318.553691021 58823.8784282920
 -1108083.19711189 -601697.562585249 40756.6237098073
 -1185327.85565291 -431794.573531802 10037.5196490903
 -1235996.83982541 -251175.913350757 -27783.1498030198
 -1258269.16229654 -62432.2903511281 -66410.5055998460
 -1250742.64583970 131577.632208871 -99396.1342264531
 -1212792.14599494 325541.024047368 -121275.237349363
 -1145620.09330960 512321.783271378 -128958.997785727
 -1052226.85042421 685161.375290395 -122155.540093279
 -936851.643650560 838632.278249179 -102734.271724630
 -805432.840753214 968169.295571170 -73997.1963549017
 -667456.566278509 1069782.04778398 -40218.5689673383
 -538962.373389532 1140625.70438383 -6480.23828109402
 -447938.623237395 1179197.02826177 19869.3047120327
 -880171.909467858 -898860.927785973 94317.9368010032
 -962249.701932635 -809147.009330612 104432.080036908
 -1058569.06106807 -679069.261363857 99226.5697238818
 -1142705.68770996 -528907.916478980 77650.2291054545
 -1205248.25969753 -370094.034322563 44231.9926510175
 -1244344.98772401 -207690.064479199 4451.91663497063
 -1260305.13594275 -43108.3936776137 -36360.1654261202
 -1253408.37090528 123069.754281511 -73285.2116364807
 -1223665.71935492 289403.757238210 -102162.143140066
 -1171115.87208157 453457.036491081 -120057.324367620
 -1095831.59072117 612337.630740805 -125479.805846206
 -997993.706262852 762602.553128787 -118301.898294767
 -879032.870492639 899394.822030537 -99697.5306468722
 -744483.217637165 1015911.51586832 -72235.4587560312
 -608586.977550520 1104335.34317969 -40184.2192791033
 -501891.837804461 1157377.19065080 -11491.4152946318
 513350.083283633 -1152288.66534591 15873.0786860070
 626851.166173335 -1094773.56306452 -8825.64451488541
 767921.058516831 -1000038.29830681 -42072.3273061615
 903523.032355425 -877361.629885711 -73702.9940131273
 1019937.17588387 -736037.323222665 -97604.5439117065
 1112983.15529522 -583655.291819346 -110292.462477378
 1182613.50737118 -425242.542059358 -110197.565876429
 1229801.30279334 -263974.756987846 -97239.4685297723
 1255320.20019994 -102152.007748176 -72702.0852655877
 1259592.42494227 58615.9559519757 -39249.5051541137
 1242620.77605028 217813.005703409 -729.653064319356
 1203697.91844094 375761.213681044 38265.6811365556
 1141655.13785723 531859.159600104 72792.9355955193
 1057059.86224423 681592.863120973 98005.3442100034
 958017.404058893 813342.596696926 110570.813678454
 871694.566620819 905036.887933246 112277.535254393
 457465.086930378 -1175258.95948938 32272.3302330118
 553760.155937043 -1133498.69427732 8934.80202092828
 687417.058646876 -1057520.23092537 -25655.0108903138
 827628.006967894 -950083.344969683 -62633.4624024836
 958028.339024603 -815244.200142875 -95435.9820933318
 1069742.80758270 -658066.352921513 -118947.180280243
 1157877.12254452 -483856.671049380 -129432.306198960
 1219429.37800721 -298284.812593787 -124770.162890757
 1252563.13819516 -107722.845073071 -105027.636377289
 1256802.59220227 81631.3559771878 -73027.3707176045
 1232827.02271092 265580.361723077 -33971.0826988791
 1181507.57024770 442215.784948391 5872.98125420862
 1103756.44982131 609626.084408378 40338.1656217082
 1002939.08015533 762591.685510799 64160.3741099759
 890859.802331401 890155.479374919 74441.0239573648
 799138.408374756 973368.546408324 74033.1550196439
 376145.088658178 -1203365.70022148 44444.2879091881
 454124.431749969 -1176784.03837578 22355.2774688119
 573600.657012031 -1123535.63332420 -14120.8301845593
 713088.169072548 -1039034.74081076 -58834.5258843044
 857718.013949577 -919054.953040777 -105864.218490304
 994859.945285377 -761438.093815752 -148375.029812851
 1112369.45169384 -567679.687594821 -178671.223619081
 1198595.73930884 -344975.667100553 -189497.951804718
 1244480.50310651 -107247.866124463 -176962.152785478
 1246767.07567447 128367.808020987 -143676.705825878
 1208419.78227885 348733.693069179 -98264.2968448921
 1135333.27510237 547676.221637001 -51171.6876573682
 1034097.42410889 722541.221621455 -11230.8249067027
 913785.011978856 869656.028946325 15645.2586767905
 791075.721237411 982344.010046296 27365.6740064463
 698614.554965613 1050101.98337736 27802.1404947272
 285908.521227103 -1227907.67284777 45260.3067849082
 346870.051688969 -1212711.76663908 23680.5661960309
 447830.877372565 -1179302.64813276 -15562.7856675827
 578049.735895864 -1119165.50086716 -69832.0515123831
 729026.641529405 -1020627.72264281 -135604.714638759
 889346.277645411 -870796.230184688 -205734.184941008
 1041134.99701651 -660348.643910329 -267445.354029893
 1159927.32675513 -392552.215077256 -303349.280539106
 1222094.49126003 -91704.4549774260 -299373.977306218
 1218275.39489663 203569.651747719 -256737.005505123
 1157551.03593004 463299.600356994 -192297.973066006
 1056965.76395000 677168.399036762 -125760.741499650
 932580.624993503 846663.747882385 -70734.0570548157
 799331.129608186 975439.707434205 -33712.8064528640
 675307.454599764 1065490.42890136 -15473.1574199877
 588293.691997375 1115944.76844846 -11279.9223210637
 194481.582364956 -1245981.99732336 35428.9060776353
 239281.875562217 -1238591.35210897 13604.3164938483
 318788.845121260 -1220267.69186824 -29493.4455052520
 431091.887590616 -1181794.30046377 -95244.1429373665
 575922.808156815 -1107173.39105388 -184470.680884441
 748386.817168744 -972560.097109308 -292563.600466161
 930509.664088926 -751014.542582832 -402092.467953788
 1084552.78604115 -432023.018970029 -478174.441275729
 1164036.12821424 -51825.2545920160 -483614.997821015
 1149290.60620264 312609.867318598 -415879.314547332
 1062140.94654601 605257.526668689 -311559.572153074
 937338.631352842 818083.525152682 -209009.729357977
 800425.218729592 966636.556604363 -128384.841693635
 667814.746394397 1067677.79168830 -75080.1475274375
 553742.813758756 1132571.84739525 -46897.0960423159
 477846.222842495 1166966.83157901 -37427.6933373784
 103926.969157323 -1257145.51285561 18269.5240149621
 132646.943247075 -1254566.07466172 -4264.23194199748
 187925.978012997 -1246410.65402938 -51901.2449645438
 273740.102570627 -1224587.55619914 -130388.283084761
 396662.959723159 -1171890.55313296 -246739.657899445
 560608.866144741 -1055924.64403850 -402852.673108946
 754638.587387337 -828268.597858452 -579690.575347395
 934464.228662466 -452935.237739187 -716362.831729399
 1028416.73985708 21285.0060521390 -730380.304100580
 1003978.63256157 456100.078546119 -612820.572948535
 900629.315843035 764593.296940827 -442508.030024559
 770279.343370776 956569.533962007 -288433.511906899
 641404.495022231 1072089.91454819 -175422.118925413
 526040.800214235 1141990.89339098 -103379.431421296
 432004.839653508 1183534.94908028 -64546.6787715023
 371319.202277839 1204656.63439282 -49738.0553707550
 13585.8588312583 -1261490.81300687 -2405.00686762170
 25583.2247215115 -1261046.69593256 -25615.6243215790
 53456.9263793080 -1258053.36476932 -77417.8231004596
 103987.991055798 -1246028.07544694 -167779.509574666
 186757.230414810 -1208358.41378735 -310710.655813518
 311863.338747253 -1107314.74380582 -517826.946976136
 479372.031675784 -873891.553814808 -773346.906851722
 653757.217146703 -440043.897419957 -985145.826916506
 755288.956128153 130750.459595892 -1001994.18211148
 741505.480535391 620570.125557265 -810315.847383458
 657666.604592428 920856.918159087 -557715.522826261
 556848.914708639 1077058.12652555 -348445.848292151
 461838.080015498 1155992.29966188 -204784.818502225
 379183.579424889 1197581.06790641 -116485.320129288
 312572.107051324 1220290.76205468 -68837.2345207215
 269537.362260912 1231434.87357850 -49670.8505976169
 -77971.3169202691 -1258946.23251867 -22897.3422851749
 -83723.8387419936 -1257939.60249419 -46127.0660460460
 -86399.1318274317 -1254610.69563899 -100182.949281205
 -78943.5534036683 -1243414.48066668 -198085.273464180
 -53316.4923738302 -1208220.47960430 -359040.464606224
 454.826475074285 -1108261.73993598 -602747.990329212
 91282.7737792876 -860835.170952602 -917703.489467659
 211284.185199220 -376086.009104605 -1185524.24596017
 313783.481275728 261746.148798805 -1193556.99963866
 353222.261048562 770444.274934878 -934451.221005551
 342246.124089107 1044225.77118889 -619685.049238653
 309753.321910116 1164301.07584186 -374172.841449109
 270718.680640987 1213757.00393079 -212261.071042042
 231424.809933773 1234848.51154657 -114634.819305894
 196369.018602559 1244659.81773075 -61729.8758987596
 172022.653367679 1249151.26803123 -39733.4521941443
 -172022.720390968 -1249151.26012804 -39733.4104849694
 -196369.103458249 -1244659.80690998 -61729.8241433384
 -231424.925732963 -1234848.49495869 -114634.764215326
 -270718.840720744 -1213756.97828028 -212261.013550981
 -309753.539127974 -1164301.03884140 -374172.776761589
 -342246.414479001 -1044225.72837288 -619684.961007887
 -353222.635956370 -770444.236904539 -934451.110646015
 -313783.924852310 -261746.136630356 -1193556.88569180
 -211284.628827068 376085.992466614 -1185524.17217481
 -91283.1517520354 860835.144798566 -917703.476404443
 -455.121479333821 1108261.72928282 -602748.009694302
 53316.2732562695 1208220.47778098 -359040.503280241
 78943.3919011453 1243414.48307942 -198085.322683038
 86399.0163339961 1254610.69940775 -100183.001687315
 83723.7545695891 1257939.60636416 -46127.1132861373
 77971.2500865904 1258946.23591461 -22897.3831547452
 -269537.431721846 -1231434.86036704 -49670.8012070056
 -312572.192015695 -1220290.74330948 -68837.1810191688
 -379183.691529067 -1197581.03826843 -116485.259914117
 -461838.227466052 -1155992.25270410 -204784.751038909
 -556849.106786287 -1077058.05681890 -348445.756799764
 -657666.835492749 -920856.832309550 -557715.392293174
 -741505.753378635 -620570.049224329 -810315.656168046
 -755289.262557200 -130750.431358035 -1001993.95481432
 -653757.531612738 440043.852693214 -985145.638210659
 -479372.321897185 873891.482368120 -773346.807688701
 -311863.586328852 1107314.68597625 -517826.921531107
 -186757.427736409 1208358.37923412 -310710.671588430
 -103988.141959564 1246028.05771985 -167779.547697677
 -53457.0417009572 1258053.35694630 -77417.8705964725
 -25583.3091322277 1261046.69335705 -25615.6668087433
 -13585.9253760385 1261490.81221208 -2405.04784307568
 -371319.275284587 -1204656.61444121 -49737.9935675337
 -432004.928338970 -1183534.92014347 -64546.6157965320
 -526040.911440618 -1141990.84809069 -103379.365865598
 -641404.627868930 -1072089.84721673 -175422.044686771
 -770279.494730604 -956569.442696375 -288433.410367222
 -900629.472856169 -764593.196925533 -442507.883270984
 -1003978.78936847 -456099.994287426 -612820.378763774
 -1028416.89970291 -21284.9836913980 -730380.079680212
 -934464.401868218 452935.187882526 -716362.637312869
 -754638.769672977 828268.508936647 -579690.465101223
 -560609.046689646 1055924.56338141 -402852.633274815
 -396663.124486211 1171890.49541493 -246739.667155390
 -273740.238809365 1224587.52251404 -130388.313427538
 -187926.088412582 1246410.63564773 -51901.2866615766
 -132647.029196789 1254566.06541249 -4264.27949823395
 -103927.036878262 1257145.50791947 18269.4784423713
 -477846.304139120 -1166966.80078736 -37427.6154683808
 -553742.904789170 -1132571.80624263 -46897.0150319508
 -667814.848954421 -1067677.73298099 -75080.0701352929
 -800425.329139098 -966636.476245305 -128384.758377233
 -937338.741586331 -818083.425828474 -209009.623761815
 -1062141.04256802 -605257.425897526 -311559.440568532
 -1149290.68222780 -312609.795100682 -415879.158735344
 -1164036.19623085 51825.2716209009 -483614.832283691
 -1084552.86655327 432022.973502113 -478174.299744802
 -930509.766922570 751014.459172475 -402092.385770402
 -748386.939606140 972560.010960350 -292563.573649749
 -575922.934092465 1107173.32368800 -184470.692032464
 -431092.000375697 1181794.25652597 -95244.1776344016
 -318788.943585825 1220267.66507344 -29493.4898341960
 -239281.954463717 1238591.33742077 13604.2659929548
 -194481.650212731 1245981.98817325 35428.8554333355
 -588293.772065878 -1115944.72725905 -11279.8213720313
 -675307.539679291 -1065490.37643157 -15473.0573245810
 -799331.223850574 -975439.633436038 -33712.7130125150
 -932580.713092681 -846663.658226083 -70733.9686835625
 -1056965.83896331 -677168.299826748 -125760.645248354
 -1157551.08892208 -463299.512164914 -192297.866556056
 -1218275.42849010 -203569.594607229 -256736.891403771
 -1222094.51703462 91704.4703807521 -299373.867371637
 -1159927.36044856 392552.183485248 -303349.192586303
 -1041135.05271553 660348.575841129 -267445.305269259
 -889346.356624897 870796.150906731 -205734.179083099
 -729026.728974317 1020627.65695373 -135604.738933031
 -578049.824397339 1119165.45249002 -69832.0942402349
 -447830.959653023 1179302.61619962 -15562.8377856188
 -346870.125808593 1212711.74659851 23680.5068035224
 -285908.585605221 1227907.66017195 45260.2440031676
 -698614.632059598 -1050101.92874772 27802.2666611028
 -791075.801117038 -982343.942488756 27365.7899874649
 -913785.089764490 -869655.945270010 15645.3667129075
 -1034097.48914285 -722541.130052519 -11230.7279298987
 -1135333.32298822 -547676.130485577 -51171.6007939976
 -1208419.80991521 -348733.620806003 -98264.2134399247
 -1246767.08946377 -128367.763823255 -143676.625656410
 -1244480.51228209 107247.876116077 -176962.082203100
 -1198595.75393760 344975.645052652 -189497.899413749
 -1112369.48100167 567679.636852549 -178671.202374582
 -994859.994128870 761438.028320343 -148375.038427919
 -857718.076209772 919054.890696070 -105864.255297035
 -713088.235283348 1039034.69246549 -58834.5771852813
 -573600.725481728 1123535.59756533 -14120.8940692691
 -454124.494630337 1176784.01542053 22355.2084856616
 -376145.148389407 1203365.68416926 44444.2170131644
 -799138.487341339 -973368.470225361 74033.3042616066
 -890859.874084947 -890155.396065668 74441.1614597721
 -1002939.14013347 -762591.596656823 64160.4926390283
 -1103756.49396101 -609625.998008826 40338.2635916933
 -1181507.59848819 -442215.708479912 5873.05774191055
 -1232827.03643767 -265580.306512888 -33971.0161724114
 -1256802.59770809 -81631.3248762043 -73027.3107275342
 -1252563.14146509 107722.853250702 -105027.588992498
 -1219429.38503569 298284.796063638 -124770.133716808
 -1157877.14138006 483856.628296869 -129432.297521398
 -1069742.84082046 658066.295407863 -118947.199548777
 -958028.381787459 815244.144823141 -95436.0253795281
 -827628.058318518 950083.296307138 -62633.5220232564
 -687417.112523368 1057520.19407538 -25655.0862748607
 -553760.207105278 1133498.66993293 8934.71913149829
 -457465.136677969 1175258.94257689 32272.2409543809
 -871694.639979437 -905036.797237644 112277.696787477
 -958017.466432192 -813342.502590013 110570.965494608
 -1057059.91071110 -681592.769777499 98005.4706301320
 -1141655.16895204 -531859.079257921 72793.0349343662
 -1203697.93495490 -375761.153356603 38265.7540416294
 -1242620.78357911 -217812.962942604 -729.596027651962
 -1259592.42767710 -58615.9310849343 -39249.4545249838
 -1255320.20203141 102152.012635224 -72702.0467755222
 -1229801.30805255 263974.741713894 -97239.4434798014
 -1182613.52053307 425242.505724195 -110197.564840341
 -1112983.17935565 583655.241732437 -110292.484733050
 -1019937.21180683 736037.267457542 -97604.5890535154
 -903523.073133187 877361.582128564 -73703.0626214272
 -767921.103916448 1000038.25978357 -42072.4143323431
 -626851.212654276 1094773.53565588 -8825.74304773665
 -513350.126788901 1152288.64740385 15872.9741691178
 535355.551283008 -1141227.03293052 50445.2568437499
 652726.262743221 -1079238.96644850 27223.3382117930
 797161.815809347 -977762.445719201 -7941.66706071726
 932721.734461231 -848285.599832277 -44622.1704960705
 1045581.03864314 -701897.850388364 -75160.6956399633
 1132799.76360763 -547094.460308593 -94877.7001676257
 1195788.22436615 -389017.886500223 -101513.729953632
 1236730.00740939 -230440.005368603 -94581.8355597568
 1257219.82320294 -72922.9119410151 -75033.2991315733
 1258032.69312214 82846.5106641998 -45162.2588625679
 1239023.85597502 237273.683016956 -8397.29666703957
 1198893.71329212 391452.894366236 31111.5194079865
 1135539.18145899 545302.489995705 68886.8107469340
 1048473.26904074 694367.835331259 100531.309965392
 945368.463781189 826308.480944708 122646.618077303
 855086.156261951 917802.932915725 134219.494185489
 477237.584898700 -1166581.86915090 53669.9268436801
 577565.865020766 -1121156.05584492 31244.2142490102
 715670.158716249 -1038912.20156452 -5205.02472294894
 857543.420568514 -924111.637301912 -46758.8982096893
 985837.184755667 -782534.772712311 -85520.7902680177
 1092245.11225784 -620710.668732918 -115188.156461280
 1173225.00557186 -444817.978652978 -131261.125573921
 1227358.73317806 -260642.714093624 -131169.152625165
 1254171.30874976 -73883.5601642500 -114651.553697863
 1253897.09390357 110485.197115301 -84169.6503351073
 1227091.22769955 289504.785635621 -44536.8265129781