# OOMMF OVF 2.0
#
# Segment count: 1
#
# Begin: Segment
# Begin: Header
#
# Title: Oxs_MinDriver::Magnetization
# Desc: Oxs vector field output
# Desc:  MIF source file: C:/Users/grl31/Documents/GitHub/phd-work/Skyrmions/stdprob3/drive-216/stdprob3.mif
# Desc:  Iteration: 952, State id: 1963
# Desc:  Stage: 0, Stage iteration: 952
# Desc:  Stage simulation time: -1 s
# Desc:  Total simulation time: -2 s
# meshunit: m
# meshtype: rectangular
# xbase: 3.1249999999999999e-09
# ybase: 3.1249999999999999e-09
# zbase: 3.1249999999999999e-09
# xnodes: 16
# ynodes: 16
# znodes: 16
# xstepsize: 6.2499999999999997e-09
# ystepsize: 6.2499999999999997e-09
# zstepsize: 6.2499999999999997e-09
# xmin: 0
# ymin: 0
# zmin: 0
# xmax: 9.9999999999999995e-08
# ymax: 9.9999999999999995e-08
# zmax: 9.9999999999999995e-08
# valuedim: 3
# valuelabels: Magnetization_x Magnetization_y Magnetization_z
# valueunits: A/m A/m A/m
#
# End: Header
#
# Begin: Data Text
 352958.887278347 1158615.38434743 352958.702915278
 333009.920386123 1163027.21458500 357800.953014421
 300033.714392385 1170195.55210588 363554.082604606
 257608.290454570 1178592.13227559 368928.157431908
 207871.338379192 1186960.54639987 373448.254634443
 152518.936039199 1194243.56033778 376921.375966073
 93137.6173418348 1199596.96560272 379264.993469734
 31318.4419989638 1202427.25485309 380443.534438659
 -31317.9994047393 1202427.26079401 380443.552096308
 -93137.1824089126 1199596.98129432 379265.050645905
 -152518.516209341 1194243.58563149 376921.465706449
 -207870.943079759 1186960.57910895 373448.370706614
 -257607.927089137 1178592.17059352 368928.288743827
 -300033.386317878 1170195.59209856 363554.224630487
 -333009.628684784 1163027.25321292 357801.098944920
 -352958.619248668 1158615.42121468 352958.849925253
 322552.564187865 1176209.69000830 322552.382389835
 307057.766520379 1179973.91020182 323923.648691318
 278438.120376553 1186228.12197793 326931.929717538
 239965.281102925 1193685.12349591 330275.522448623
 194031.944066510 1201175.71863023 333283.555810774
 142515.463352218 1207713.18980020 335659.983922825
 87072.6379989835 1212521.80586779 337281.272717542
 29284.7460029778 1215063.97145716 338099.659623101
 -29284.3156912110 1215063.97659817 338099.678418800
 -87072.2147619231 1212521.82082838 337281.328197146
 -142515.055412386 1207713.21425626 335660.069133308
 -194031.559823121 1201175.75000126 333283.666447173
 -239964.927359076 1193685.15908032 330275.650855321
 -278437.800407648 1186228.15872062 326932.068909406
 -307057.482906479 1179973.94553051 323923.788844317
 -322552.302906036 1176209.72280284 322552.524084109
 279303.047364783 1198135.69541403 279302.871496940
 266977.961180983 1201260.85154904 277929.065947189
 243289.254882281 1206282.29350023 277925.885382405
 210467.420388941 1212256.98730011 278721.891167232
 170594.857556058 1218274.11420251 279740.966178502
 125476.745321671 1223534.18911069 280658.342793641
 76717.9131793649 1227404.98439474 281319.741574062
 25809.8687107992 1229451.20949946 281661.152906119
 -25809.4579285138 1229451.21407227 281661.170587295
 -76717.5091311343 1227404.99796603 281319.792548775
 -125476.358186988 1223534.21055725 280658.422376984
 -170594.494962797 1218274.14101909 279741.070512593
 -210467.085760049 1212257.01739642 278722.012951553
 -243288.952523428 1206282.32425861 277926.016558839
 -266977.690840800 1201260.88024570 277929.201602850
 -279302.799159200 1198135.72170466 279303.006922666
 229851.344581993 1218969.33009809 229851.174878476
 219978.408830068 1221321.70478533 227007.101183640
 200942.921381913 1224982.70324892 224919.430033138
 174251.948494027 1229285.65636353 223701.730936253
 141498.147039329 1233604.03535017 223044.366149803
 104198.030908248 1237375.37998231 222697.935076722
 63749.8759403561 1240149.26271655 222520.089924779
 21453.2453962960 1241615.09069775 222443.601239794
 -21452.8587994196 1241615.09446013 222443.617523767
 -63749.4961401106 1240149.27378634 222520.137039434
 -104197.667413324 1237375.39795504 222698.005290068
 -141497.808492711 1233604.05699829 223044.461191224
 -174251.639133232 1229285.67956894 223701.844393543
 -200942.643023282 1224982.72609329 224919.554300707
 -219978.157462796 1221321.72605482 227007.230335721
 -229851.112540057 1218969.34951915 229851.303924775
 178052.644553135 1236181.21664662 178052.481860456
 170393.654929620 1237721.23110566 174818.727111741
 155760.096249580 1240066.42874449 171823.967001565
 135218.020247987 1242786.13391943 169552.774252651
 109913.745798042 1245498.31352287 167935.554351293
 81000.7692713074 1247860.22232574 166832.766067005
 49580.4725563276 1249595.08300727 166142.517689215
 16688.5142513647 1250511.23041009 165808.887063632
 -16688.1560707940 1250511.23330040 165808.901315416
 -49580.1195525289 1249595.09133112 166142.560427098
 -81000.4310194302 1247860.23558691 166832.831105257
 -109913.432356325 1245498.32989478 167935.638075807
 -135217.737713352 1242786.15034020 169552.879212405
 -155759.839448633 1240066.44500357 171824.082450917
 -170393.424624599 1237721.24542629 174818.850196574
 -178052.432240763 1236181.22927936 178052.606466378
 126132.483855872 1248891.77388582 126132.329541780
 120645.006561696 1249716.10468708 123303.978023515
 110270.960277027 1250954.40607396 120427.655306778
 95754.0275766765 1252374.77569999 118059.384684941
 77867.4266075812 1253782.07857072 116260.888725936
 57406.1776766294 1255003.48827587 114979.155062588
 35147.5648642356 1255899.09784752 114155.751624074
 11832.0482252419 1256371.66528365 113752.680083265
 -11831.7205594027 1256371.66741257 113752.690651733
 -35147.2429160518 1255899.10344550 114155.789161784
 -57405.8692719133 1255003.49704059 114979.213373403
 -77867.1396674027 1253782.08913648 116260.966964591
 -95753.7675357323 1252374.78631503 118059.482990772
 -110270.725939163 1250954.41598627 120427.766915519
 -120644.798456608 1249716.11279471 123304.099467915
 -126132.293042071 1248891.78068842 126132.453000045
 75067.2251054728 1257091.59427410 75067.0782654658
 71763.9925705512 1257396.17688729 73172.4991954126
 65569.6181757657 1257850.08798623 71156.2523203932
 56932.8215682635 1258366.85881865 69432.9415631145
 46302.1354601190 1258876.33217432 68087.6160701349
 34140.2314268943 1259317.25038478 67111.3880083039
 20905.2902829957 1259640.07063674 66477.7572080224
 7038.03835655861 1259810.28341925 66166.0541831078
 -7037.73857363068 1259810.28453630 66166.0648013659
 -20904.9966006500 1259640.07363358 66477.7927768095
 -34139.9522698523 1259317.25485661 67111.4461055826
 -46301.8769466685 1258876.33740684 68087.6951240672
 -56932.5845941498 1258366.86421657 69433.0380449439
 -65569.4052017891 1257850.09281826 71156.3631555693
 -71763.8056690580 1257396.18051203 73172.6202113670
 -75067.0546405088 1257091.59697149 75067.2035593525
 24900.8619967229 1261074.67339887 24900.7249432021
 23797.8327886218 1261108.89467704 24237.3645424601
 21738.1305100751 1261159.70651206 23517.6374511444
 18872.5701042249 1261217.33845323 22892.8417102068
 15348.4359690540 1261274.00563143 22399.5346090781
 11317.3785331659 1261322.96944941 22038.9337628670
 6930.35920357540 1261358.78746485 21803.9061974285
 2333.31389823769 1261377.66537281 21688.0580927649
 -2333.03745974047 1261377.66566275 21688.0709691162
 -6930.09230322317 1261358.78834977 21803.9398371927
 -11317.1255846320 1261322.97066257 22038.9942239453
 -15348.2016872850 1261274.00702456 22399.6166962258
 -18872.3560858154 1261217.33983879 22892.9418093563
 -21737.9407720016 1261159.70766183 23517.7511738118
 -23797.6663541478 1261108.89548558 24237.4858885237
 -24900.7113055659 1261074.67388557 24900.8509860820
 -24900.7061495990 1261074.67432235 -24900.8340219767
 -23797.6624819229 1261108.89588253 -24237.4690365977
 -21737.9401942507 1261159.70795160 -23517.7361685244
 -18872.3561999769 1261217.34012638 -22892.9258713186
 -15348.2049552050 1261274.00717405 -22399.6060394963
 -11317.1310306940 1261322.97066953 -22038.9910293067
 -6930.10094686090 1261358.78820538 -21803.9454427471
 -2333.04959612694 1261377.66551629 -21688.0781817575
 2333.29954073657 1261377.66527643 -21688.0652428702
 6930.34580347835 1261358.78752449 -21803.9070065883
 11317.3618533317 1261322.96972180 -22038.9267391920
 15348.4169515307 1261274.00614182 -22399.5189008180
 18872.5471301009 1261217.33916783 -22892.8212806744
 21738.1072329215 1261159.70731143 -23517.6161001538
 23797.8075441861 1261108.89555895 -24237.3434420876
 24900.8355154033 1261074.67435626 -24900.7029386622
 -75067.0719467958 1257091.59647991 -75067.1944852029
 -71763.8239037022 1257396.17997728 -73172.6115170054
 -65569.4305219690 1257850.09201216 -71156.3540731917
 -56932.6120329533 1258366.86352510 -69433.0280777871
 -46301.9055138190 1258876.33673373 -68087.6881426218
 -34139.9843508221 1259317.25402188 -67111.4454490675
 -20905.0328187253 1259640.07275303 -66477.7980723195
 -7037.77669084159 1259810.28403844 -66166.0702262684
 7037.99851925360 1259810.28351067 -66166.0566798519
 20905.2504497885 1259640.07133932 -66477.7564216972
 34140.1911852275 1259317.25211072 -67111.3760929871
 46302.0941868092 1258876.33478864 -68087.5958011410
 56932.7758956519 1258366.86221119 -69432.9175286698
 65569.5726463552 1257850.09184143 -71156.2261255261
 71763.9482113440 1257396.18095898 -73172.4727328307
 75067.1812437818 1257091.59845763 -75067.0520689191
 -126132.334898415 1248891.77626539 -126132.454938129
 -120644.842738134 1249716.10849962 -123304.099673159
 -110270.777455571 1250954.41161296 -120427.765172210
 -95753.8231257051 1252374.78237322 -118059.479718506
 -77867.2009379795 1253782.08551436 -116260.964989518
 -57405.9339935998 1255003.49401875 -114979.214043298
 -35147.3092884885 1255899.10123090 -114155.793090600
 -11831.7881758359 1256371.66654359 -113752.693216423
 11831.9805479995 1256371.66601820 -113752.679009869
 35147.4962019773 1255899.10036688 -114155.745047470
 57406.1078981999 1255003.49308291 -114979.137432070
 77867.3571748950 1253782.08514568 -116260.864323764
 95753.9595846344 1252374.78331720 -118059.359027663
 110270.895836892 1250954.41451244 -120427.626656532
 120644.946343273 1249716.11347838 -123303.947841427
 126132.424055758 1248891.78302145 -126132.298886037
 -178052.499822218 1236181.21771730 -178052.619157860
 -170393.495659930 1237721.23426487 -174818.859982552
 -155759.918626651 1240066.43422219 -171824.088485406
 -135217.821660997 1242786.14089106 -169552.881524651
 -109913.526044067 1245498.32143781 -167935.639478690
 -81000.5291262958 1247860.22919764 -166832.831262426
 -49580.2199141576 1249595.08734992 -166142.560420787
 -16688.2557843376 1250511.23224454 -165808.899242669
 16688.4145791622 1250511.23245121 -165808.881701654
 49580.3722135983 1249595.08854652 -166142.505971606
 81000.6694588786 1247860.23147648 -166832.746083097
 109913.651012903 1245498.32534776 -167935.528688504
 135217.932591618 1242786.14713645 -169552.747280443
 155760.013955160 1240066.44327324 -171823.936747185
 170393.578184401 1237721.24637653 -174818.693796139
 178052.571699742 1236181.23206220 -178052.447686741
 -229851.203713242 1218969.32867576 -229851.323290276
 -219978.255088818 1221321.70553110 -227007.246152246
 -200942.748574555 1224982.70681171 -224919.565014923
 -174251.752305012 1229285.66254591 -223701.849783684
 -141497.930838229 1233604.04280462 -223044.462077771
 -104197.796100263 1237375.38717925 -222698.004952433
 -63749.6281198968 1240149.26750121 -222520.134256989
 -21452.9914162491 1241615.09304333 -222443.612642044
 21453.1147506889 1241615.09463677 -222443.591853255
 63749.7469505198 1240149.27191307 -222520.075625077
 104197.906430963 1237375.39419632 -222697.914341085
 141498.030542239 1233604.05321528 -223044.341247338
 174251.840256050 1229285.67692655 -223701.702250029
 200942.823954362 1224982.72481150 -224919.399638187
 219978.318919233 1221321.72760275 -227007.065550494
 229851.260433405 1218969.35345375 -229851.135165077
 -279302.912489399 1198135.69026905 -279303.028442940
 -266977.811967237 1201260.84915088 -277929.219646754
 -243289.082562149 1206282.29465548 -277926.031212862
 -210467.226387174 1212256.99126844 -278722.020401382
 -170594.643676858 1218274.12031231 -279741.070000430
 -125476.514030642 1223534.19567715 -280658.417572576
 -76717.6707561546 1227404.98903490 -281319.787439368
 -25809.6184687844 1229451.21230582 -281661.163587036
 25809.7120665137 1229451.21506245 -281661.142977631
 76717.7603341352 1227404.99749198 -281319.726112424
 125476.599646523 1223534.20823556 -280658.324546902
 170594.722520475 1218274.13854529 -279740.942514382
 210467.295563076 1212257.01530807 -278721.863609009
 243289.141104422 1206282.32349047 -277925.854813955
 266977.860209214 1201260.88266458 -277929.028453257
 279302.954670306 1198135.72683545 -279302.829401859
 -322552.432545093 1176209.68148684 -322552.545106726
 -307057.620764667 1179973.90441086 -323923.807952879
 -278437.950753908 1186228.12001761 -326932.081292732
 -239965.088708732 1193685.12514019 -330275.656291845
 -194031.731881415 1201175.72253145 -333283.665280958
 -142515.234769434 1207713.19473623 -335660.063215126
 -87072.3981780297 1212521.80985047 -337281.320312010
 -29284.4962487997 1215063.97489530 -338099.668899637
 29284.5707262824 1215063.97893871 -338099.647917529
 87072.4695418977 1212521.82210822 -337281.257822281
 142515.302521485 1207713.21407919 -335659.964852328
 194031.792322402 1201175.74910760 -333283.534311101
 239965.143127712 1193685.15824464 -330275.497106759
 278437.996355105 1186228.15914749 -326931.900478155
 307057.658230547 1179973.94843580 -323923.612065797
 322552.462892699 1176209.72911395 -322552.341083575
 -352958.757535506 1158615.37453445 -352958.864870044
 -333009.774771125 1163027.20647467 -357801.114902623
 -300033.545780963 1170195.54791360 -363554.235250050
 -257608.100740170 1178592.13154643 -368928.292231484
 -207871.128349049 1186960.54762958 -373448.367634301
 -152518.708688412 1194243.56365341 -376921.457456835
 -93137.3789524254 1199596.96903024 -379265.041170785
 -31318.1921401460 1202427.25881417 -380443.542487795
 31318.2570155874 1202427.26338454 -380443.522702140
 93137.4418183973 1199596.98401815 -379264.978326543
 152518.766474776 1194243.58730655 -376921.359130995
 207871.179382753 1186960.58071904 -373448.234056742
 257608.147216088 1178592.17171580 -368928.131452558
 300033.586043786 1170195.59413767 -363554.053237534
 333009.808050588 1163027.25768663 -357800.917465273
 352958.781980399 1158615.42890690 -352958.661943234
 357801.138268248 1163027.21629817 333009.715357736
 338371.181050728 1167287.22130930 338370.976475958
 305426.358709906 1174580.26745482 344420.332776565
 262584.052463326 1183253.55334324 350014.392291912
 212088.374431326 1191949.07800761 354718.688240189
 155718.454126945 1199538.70457258 358340.745932702
 95133.3180164621 1205126.41168118 360789.986821376
 31996.4850077143 1208083.07329615 362023.402394706
 -31996.0451229217 1208083.07904469 362023.422089450
 -95132.8858620248 1205126.42768029 360790.047330929
 -155718.037814840 1199538.72970786 358340.842702735
 -212087.983048924 1191949.11004190 354718.814606037
 -262583.695344794 1183253.59000890 350014.536253954
 -305426.036425484 1174580.30532432 344420.489426241
 -338370.891309731 1167287.25805843 338371.139442546
 -357800.871381084 1163027.25165027 333009.878647333
 323923.829714708 1179973.91319269 307057.564060276
 309516.954547659 1183194.00985737 309516.753672792
 281460.266089070 1189253.13713575 313059.938901177
 242996.349985522 1196743.67590195 316712.454761964
 196699.837983459 1204365.96877198 319939.397261691
 144576.420076847 1211055.03879750 322479.119758018
 88369.1521319748 1215988.02362943 324212.045211480
 29726.7449114797 1218599.14113403 325087.503271543
 -29726.3173955605 1218599.14600552 325087.524103373
 -88368.7330538917 1215988.03851380 324212.103612377
 -144576.016919310 1211055.06222854 322479.212510387
 -196699.460396391 1204365.99830851 319939.518217238
 -242996.003538516 1196743.70897693 316712.595593251
 -281459.952157574 1189253.17174953 313060.089653870
 -309516.672548687 1183194.04215369 309516.912212161
 -323923.570106123 1179973.94275831 307057.724312654
 277929.240979235 1201260.85450748 266977.765657769
 266827.563900656 1203808.80411520 266827.369654115
 244013.544910686 1208496.83458097 267473.777456516
 211560.818541380 1214341.76802865 268636.411154740
 171708.376902039 1220336.32866799 269897.960632816
 126395.145008712 1225618.28206794 270986.207947964
 77313.7769450932 1229519.51627244 271760.501027311
 26015.5691933651 1231585.27590790 272158.647199324
 -26015.1648321816 1231585.28024293 272158.666234717
 -77313.3785492107 1229519.52904375 271760.556586671
 -126394.764279033 1225618.30263911 270986.292490653
 -171708.021471815 1220336.35319908 269898.075839685
 -211560.490689840 1214341.79554969 268636.544943513
 -244013.248008456 1208496.86188618 267473.924947057
 -266827.296738690 1203808.82947840 266827.522388370
 -277928.994463565 1201260.87746584 266977.918984744
 227007.268980135 1221321.70757072 219978.220207561
 218271.760496405 1223218.86389243 218271.575122542
 200175.669952385 1226565.53332079 216832.019193558
 174030.835003437 1230694.75175620 215993.350329854
 141536.868436741 1234924.89283671 215585.841010779
 104320.890026030 1238654.14757282 215412.361585368
 63856.9541625843 1241409.44028546 215346.980229964
 21494.0545701850 1242868.43646950 215326.464153729
 -21493.6776342652 1242868.43970065 215326.483129167
 -63856.5835441429 1241409.45066344 215347.030303459
 -104320.535568035 1238654.16362916 215412.440917170
 -141536.538609541 1234924.91239447 215585.945518021
 -174030.532850830 1230694.77225117 215993.477003953
 -200175.394857068 1226565.55375674 216832.157555549
 -218271.512556647 1223218.88202377 218271.721452172
 -227007.039847256 1221321.72360270 219978.367652070
 174818.886218235 1237721.23337621 170393.475197949
 168110.413488014 1238962.17347324 168110.239123945
 154323.664781751 1241080.92960868 165685.737373308
 134347.163688763 1243656.82885444 163761.908182125
 109394.824436303 1246280.72597739 162377.816720088
 80701.0227090391 1248589.18126210 161436.774893169
 49425.0737503298 1250293.33672778 160851.375927749
 16640.4071410481 1251195.37927818 160569.768767547
 -16640.0605314481 1251195.38195755 160569.783809329
 -49424.7337449671 1250293.34436849 160851.421010349
 -80700.6969493299 1248589.19306958 161436.846415875
 -109394.521029106 1246280.74020832 162377.911901751
 -134346.887023440 1243656.84342991 163762.024462374
 -154323.416062897 1241080.94318590 165685.867334658
 -168110.189606099 1238962.18507616 168110.377493100
 -174818.676732354 1237721.24348070 170393.616726343
 123304.127937405 1249716.10637302 120644.835879548
 118526.362142983 1250380.93104118 118526.198305262
 108811.961083886 1251492.00729601 116091.100943327
 94768.7684259538 1252825.69865927 114000.351880571
 77210.5776500464 1254175.45502134 112391.661789972
 56986.1276121223 1255359.34940209 111242.599967330
 34912.4370088240 1256232.11271327 110505.346698716
 11756.2155378470 1256693.79668616 110145.012078228
 -11755.9006336600 1256693.79847559 110145.025272357
 -34912.1282880832 1256232.11765721 110505.388030809
 -56985.8303153804 1255359.35697159 111242.666841933
 -77210.3010852249 1254175.46408494 112391.750643013
 -94768.5171531800 1252825.70778436 114000.460482276
 -108811.734835524 1251492.01549002 116091.224671653
 -118526.160177937 1250380.93733999 118526.333821675
 -123303.940728543 1249716.11136610 120644.975493197
 73172.6398963727 1257396.17786539 71763.8319702512
 70306.6413046573 1257642.00194739 70306.4865085763
 64528.2484137531 1258047.66708010 68568.2392213573
 56201.9293536861 1258530.34434469 67023.4766295720
 45797.7709927412 1259016.32363477 65801.9141989111
 33808.8993800296 1259441.43373644 64912.7431986261
 20716.4744597878 1259754.40748420 64335.7709912353
 6976.60150745945 1259919.86839360 64052.1910431195
 -6976.31413957480 1259919.86931174 64052.2042825712
 -20716.1935632889 1259754.41008063 64335.8106003909
 -33808.6322534757 1259441.43756920 64912.8079637230
 -45797.5219541418 1259016.32813189 65802.0014824590
 -56201.7004952670 1258530.34889597 67023.5830748062
 -64528.0445523976 1258047.67083590 68568.3621618965
 -70306.4615830112 1257642.00440219 70306.6223188367
 -73172.4739156173 1257396.17959040 71763.9709847326
 24237.4956562200 1261108.89500329 23797.6819639464
 23282.0333089471 1261136.52372115 23281.8895384146
 21364.2060085515 1261181.85103560 22657.0130200436
 18606.3408720428 1261235.54534546 22093.7582916574
 15162.4757114700 1261289.45675845 21643.3943555535
 11194.1085642505 1261336.54292668 21313.1023121558
 6859.70303420367 1261371.18132168 21097.8274799441
 2310.25769521518 1261389.48718322 20991.7901089779
 -2309.99518286891 1261389.48741755 20991.8049174402
 -6859.44873317817 1261371.18203851 21097.8673047482
 -11193.8649256120 1261336.54394124 21313.1702321029
 -15162.2500894153 1261289.45791998 21643.4847265274
 -18606.1375654150 1261235.54645886 22093.8659466333
 -21364.0246195768 1261181.85184171 22657.1391864802
 -23281.8745344216 1261136.52417238 23282.0238708310
 -24237.3505307348 1261108.89514369 23797.8223304458
 -24237.3469492060 1261108.89555323 -23797.8042754221
 -23281.8712369559 1261136.52454252 -23282.0071188923
 -21364.0250387177 1261181.85210120 -22657.1243473895
 -18606.1396377335 1261235.54663799 -22093.8539760108
 -15162.2542092628 1261289.45801995 -21643.4760145140
 -11193.8715843975 1261336.54391207 -21313.1684612147
 -6859.45672012781 1261371.18193733 -21097.8707571276
 -2310.00633464586 1261389.48729327 -20991.8111584133
 2310.24277358504 1261389.48711191 -20991.7960365651
 6859.68854080390 1261371.18137176 -21097.8291985278
 11194.0916972091 1261336.54315707 -21313.0975367830
 15162.4566507816 1261289.45718688 -21643.3827415523
 18606.3198147924 1261235.54595829 -22093.7410415009
 21364.1828489151 1261181.85175741 -22656.9946792745
 23282.0088918760 1261136.52457922 -23281.8674758644
 24237.4702341413 1261108.89592962 -23797.6587665782
 -73172.4931009509 1257396.17909513 -71763.9601005143
 -70306.4817783342 1257642.00390967 -70306.6109336243
 -64528.0698277908 1258047.67007721 -68568.3522958448
 -56201.7292608761 1258530.34810349 -67023.5738345321
 -45797.5518924384 1259016.32728779 -65801.9967962822
 -33808.6652942456 1259441.43661838 -64912.8092028103
 -20716.2287565793 1259754.40926025 -64335.8153319464
 -6976.35218718878 1259919.86883817 -64052.2094539209
 6976.56128911069 1259919.86847855 -64052.1937526813
 20716.4330294062 1259754.40823937 -64335.7695451225
 33808.8579866548 1259441.43532378 -64912.7339600304
 45797.7289612962 1259016.32609143 -65801.8964482631
 56201.8836802993 1258530.34750046 -67023.4556712964
 64528.2035110535 1258047.67061908 -68568.2165473722
 70306.5980992873 1257642.00572512 -70306.4621380209
 73172.5957598036 1257396.18198181 -71763.8048482619
 -123303.984322912 1249716.10718934 -120644.974203529
 -118526.206383677 1250380.93326158 -118526.330640708
 -108811.786308922 1251492.01129663 -116091.221631642
 -94768.5733209716 1252825.70385676 -114000.456952942
 -77210.3624558178 1254175.46054660 -112391.747967241
 -56985.8947442567 1255359.35406131 -111242.666679253
 -34912.1940865683 1256232.11548919 -110505.391889151
 -11755.9680392803 1256693.79757079 -110145.028401284
 11756.1458916542 1256693.79727710 -110145.012769434
 34912.3667826342 1256232.11518367 -110505.340801882
 56986.0567857697 1255359.35379534 -111242.586672147
 77210.5085504940 1254175.46109210 -112391.641516330
 94768.7018979119 1252825.70583358 -114000.328342221
 108811.896156388 1251492.01537649 -116091.074690045
 118526.300332488 1250380.93959108 -118526.169919458
 123304.067747296 1249716.11511122 -120644.806880525
 -174818.746105143 1237721.23249751 -170393.625332720
 -168110.261626873 1238962.17448627 -168110.383519115
 -154323.495292417 1241080.93293933 -165685.870291142
 -134346.971784892 1243656.83410435 -163762.025746879
 -109394.612905762 1246280.73235192 -162377.910303466
 -80700.7939674594 1248589.18692541 -161436.845437845
 -49424.8324269925 1250293.34034225 -160851.421984202
 -16640.1607882744 1251195.38061348 -160569.783892791
 16640.3059675413 1251195.38133387 -160569.763234123
 49424.9724438363 1250293.34205984 -160851.365610356
 80700.9232975997 1248589.18989949 -161436.757784573
 109394.729996749 1246280.73711101 -162377.794891809
 134347.075035002 1243656.84178246 -163761.882732765
 154323.582581295 1241080.94352581 -165685.709689490
 168110.335811412 1238962.18816485 -168110.208524370
 174818.810552989 1237721.24858757 -170393.442334565
 -227007.133179156 1221321.70355152 -219978.382662387
 -218271.611330151 1223218.86223154 -218271.733596588
 -200175.500953973 1226565.53490653 -216832.166239811
 -174030.646603522 1230694.75580497 -215993.479058655
 -141536.661036917 1234924.89855492 -215585.944417984
 -104320.663794158 1238654.15349380 -215412.437099310
 -63856.7163698800 1241409.44440209 -215347.027011530
 -21493.8091770566 1242868.43834730 -215326.477810196
 21493.9220787712 1242868.44000462 -215326.456974315
 63856.8229435572 1241409.44928295 -215346.967272627
 104320.763520074 1238654.16119656 -215412.344511628
 141536.751458797 1234924.91023282 -215585.818160452
 174030.726268004 1230694.77150060 -215993.325440080
 200175.569288054 1226565.55478208 -216831.990723886
 218271.667402574 1223218.88656151 -218271.541176298
 227007.181776391 1221321.73029373 -219978.184039313
 -277929.108611663 1201260.84685773 -266977.937874910
 -266827.418251370 1203808.79894485 -266827.538629748
 -244013.379329203 1208496.83306627 -267473.935358355
 -211560.631396965 1214341.77003989 -268636.549445995
 -171708.171023798 1220336.33292964 -269898.072342992
 -126394.921896810 1225618.28755154 -270986.287211877
 -77313.5404690328 1229519.52012685 -271760.550864415
 -26015.3264353903 1231585.27825387 -272158.659788257
 26015.4098818070 1231585.28120656 -272158.638450049
 77313.6200633765 1229519.52904621 -271760.487866853
 126394.996681146 1225618.30163005 -270986.188656190
 171708.238552919 1220336.35279279 -269897.939570484
 211560.690029377 1214341.79581467 -268636.386758828
 244013.428910819 1208496.86410013 -267473.749908817
 266827.459785786 1203808.83498036 -266827.334518875
 277929.143781807 1201260.88570045 -266977.726490131
 -323923.700032527 1179973.90225745 -307057.742888074
 -309516.810233079 1183194.00186575 -309516.928537054
 -281460.102051701 1189253.13305773 -313060.101872424
 -242996.166732855 1196743.67475065 -316712.599712100
 -196699.634084976 1204365.97096051 -319939.514380676
 -144576.197095841 1211055.04284574 -322479.204523587
 -88368.9174759981 1215988.02735190 -324212.095209139
 -29726.5014162506 1218599.14384588 -325087.515371755
 29726.5662885037 1218599.14810581 -325087.493471293
 88368.9796873344 1215988.03984284 -324212.031404059
 144576.253916095 1211055.06311233 -322479.102939309
 196699.683662056 1204365.99941623 -319939.376783072
 242996.208424612 1196743.71094838 -316712.430946002
 281460.138019000 1189253.17514020 -313059.909672626
 309516.841416306 1183194.04851772 -309516.719016736
 323923.725320890 1179973.95140575 -307057.527341517
 -357801.009430747 1163027.20463908 -333009.894505711
 -338371.037692649 1167287.21107014 -338371.155156342
 -305426.196119900 1174580.26099045 -344420.499004181
 -262583.869878853 1183253.55044181 -350014.539076961
 -212088.170276238 1191949.07820387 -354718.809646128
 -155718.231451653 1199538.70759283 -358340.832586853
 -95133.0831301319 1205126.41496115 -360790.037800383
 -31996.2400255082 1208083.07682108 -362023.412283932
 31996.2960641009 1208083.08137466 -362023.392135715
 95133.1362984077 1205126.42986122 -360789.974011115
 155718.279792626 1199538.73243419 -358340.728424160
 212088.210117780 1191949.11302451 -354718.668818072
 262583.903237667 1183253.59324128 -350014.369363646
 305426.226423349 1174580.30988871 -344420.305373389
 338371.064060739 1167287.26482994 -338370.943331716
 357801.029757989 1163027.26076752 -333009.676638182
 363554.262008824 1170195.55752681 300033.475863438
 344420.530348409 1174580.27055182 305426.124003647
 311519.547116438 1182142.42573545 311519.321968374
 268296.445662119 1191211.38211166 317146.482388910
 217004.020885666 1200354.19323413 321882.737380647
 159490.137270150 1208361.70393078 325536.971027871
 97502.6859003480 1214269.32449580 328013.208193937
 32804.2283456706 1217398.78510891 329262.071209175
 -32803.8012423354 1217398.79069648 329262.093101778
 -97502.2673084617 1214269.34007647 328013.274943127
 -159489.735332562 1208361.72818236 325537.077929145
 -217003.642838126 1200354.22428619 321882.876450786
 -268296.098611800 1191211.41659676 317146.646455847
 -311519.235737171 1182142.46088493 311519.499963664
 -344420.250180290 1174580.30424041 305426.310384703
 -363554.002873341 1170195.58945552 300033.665332044
 326932.107073987 1186228.12837436 278437.884880234
 313060.132374167 1189253.14077301 281460.035526085
 285398.080013799 1195259.56534242 285397.859664064
 246906.455429486 1202874.69063316 289273.420521783
 200170.349653328 1210721.04004189 292635.994434217
 147282.958077440 1217651.33176599 295266.651397389
 90083.3443143597 1222779.70829932 297059.265076041
 30313.1160860490 1225498.84560157 297964.973346409
 -30312.7035717396 1225498.85032508 297964.995885487
 -90082.9391793657 1222779.72276236 297059.328399150
 -147282.569451166 1217651.35360510 295266.755186688
 -200169.986080849 1210721.06727170 292636.130468940
 -246906.120731364 1202874.72136729 289273.578399231
 -285397.777861913 1195259.59589430 285398.033863269
 -313059.858564244 1189253.16961042 281460.218230340
 -326931.853382755 1186228.15453012 278438.071324204
 277926.057110156 1206282.29988730 243289.027037303
 267473.964712392 1208496.83820747 244013.321690689
 245336.756821012 1212917.67497881 245336.545169076
 213227.365897292 1218654.52373623 246910.253186638