# OOMMF OVF 2.0
#
# Segment count: 1
#
# Begin: Segment
# Begin: Header
#
# Title: Oxs_MinDriver::Magnetization
# Desc: Oxs vector field output
# Desc:  MIF source file: C:/Users/grl31/Documents/GitHub/phd-work/Skyrmions/stdprob3/drive-80/stdprob3.mif
# Desc:  Iteration: 539, State id: 1143
# Desc:  Stage: 0, Stage iteration: 539
# Desc:  Stage simulation time: -1 s
# Desc:  Total simulation time: -2 s
# meshunit: m
# meshtype: rectangular
# xbase: 3.1249999999999999e-09
# ybase: 3.1249999999999999e-09
# zbase: 3.1249999999999999e-09
# xnodes: 16
# ynodes: 16
# znodes: 16
# xstepsize: 6.2499999999999997e-09
# ystepsize: 6.2499999999999997e-09
# zstepsize: 6.2499999999999997e-09
# xmin: 0
# ymin: 0
# zmin: 0
# xmax: 9.9999999999999995e-08
# ymax: 9.9999999999999995e-08
# zmax: 9.9999999999999995e-08
# valuedim: 3
# valuelabels: Magnetization_x Magnetization_y Magnetization_z
# valueunits: A/m A/m A/m
#
# End: Header
#
# Begin: Data Text
 501892.128782164 -1157377.08241239 -11489.6080018659
 608587.491694784 -1104335.11934583 -40182.5839266968
 744483.888491742 -1015911.12710338 -72234.0122290457
 879033.573570676 -899394.275043045 -99696.2661001703
 997994.326399245 -762601.916787987 -118300.768827421
 1095832.06282849 -612337.003295288 -125478.744779199
 1171116.18711584 -453456.497593358 -120056.286734955
 1223665.89866107 -289403.374906673 -102161.078525922
 1253408.45601005 -123069.551555172 -73284.0965111918
 1260305.16962573 43108.4144892107 -36358.9732231026
 1244345.00036198 207689.960785353 4453.22153796882
 1205248.24664050 370093.902957589 44233.4475546867
 1142705.59230822 528907.881353180 77651.8722824179
 1058568.77087277 679069.442784345 99228.4239944527
 962249.075212487 809147.489324767 104434.135660203
 880170.898409049 898861.686443662 94320.1418384090
 447938.719295638 -1179196.96321141 19870.9996657591
 538962.613908914 -1140625.59970924 -6478.65845359668
 667456.940575157 -1069781.86843330 -40217.1277986057
 805433.286510625 -968169.023935772 -73995.8984735102
 936852.081441219 -838631.934998439 -102733.081424555
 1052227.21913268 -685161.011456558 -122154.404812438
 1145620.36156681 -512321.464522809 -128957.880998764
 1212792.31863661 -325540.804066051 -121274.101369660
 1250742.74812051 -131577.546221870 -99394.9610048281
 1258269.22902136 62432.2531777592 -66409.2763105153
 1235996.89077078 251175.807182381 -27781.8431750409
 1185327.87074870 431794.499541918 10038.9197946036
 1108083.09916346 601697.640178924 40758.1411545986
 1008752.88827494 755318.872318575 58825.5253722868
 900015.144164860 881961.461203832 60548.7584023141
 812062.308620068 964238.442908522 48460.9436035601
 368418.263721428 -1205883.28378413 40778.9132448982
 442230.423931724 -1181395.84517110 16897.9312516362
 556742.212298050 -1131927.77146897 -18084.8041661552
 692860.951885444 -1052610.69171454 -59193.4452417135
 836722.133618330 -938666.290185503 -101740.344512532
 976130.809789849 -786868.964418794 -139840.287229616
 1098684.73997362 -597249.645243011 -166535.684840052
 1191524.25696123 -375721.671095161 -175078.844699763
 1243725.29175601 -136000.846563686 -161865.991793649
 1250594.43830897 103619.881207959 -129714.694649699
 1214924.45735105 328450.153214776 -87341.2313996519
 1143358.73822339 531276.125771492 -45010.0525705113
 1043455.90950692 708959.761578321 -11191.6172577775
 925141.283209844 857666.952134437 8392.62987526767
 805510.747759033 970863.402283892 11230.3281066682
 715738.738792285 1038877.61866730 884.388572880871
 278626.960225090 -1229576.01390801 45379.2240653442
 335964.711267324 -1215785.39944459 23302.4934155674
 432185.912764360 -1185153.82297584 -13235.6946455812
 558364.286257720 -1129546.48622494 -62477.9177609693
 707279.251998648 -1037516.10174991 -121925.506850949
 868929.486440032 -895574.524692905 -185626.639346545
 1026375.19448025 -692406.537161084 -242232.488265258
 1154181.52186687 -428370.122183985 -275524.016956991
 1225436.68901826 -126363.988622873 -271820.702865381
 1227827.71445014 173192.441989795 -232363.750582389
 1170303.28296018 437862.358567562 -173828.109813197
 1071277.40538550 656260.376796776 -115049.856479765
 947949.986355009 829607.538061494 -68495.1609972435
 815934.738786362 961354.228288675 -39974.7509319448
 693673.970619709 1053296.81330039 -30523.3762038081
 608039.971346260 1104782.43674016 -35952.6304276965
 186323.953872296 -1247200.41355654 36386.0351885271
 227778.009439319 -1240737.88026119 15366.2558804733
 302700.556566136 -1224484.21473869 -23668.7944193902
 410600.955650304 -1190015.20624437 -82583.8667366742
 552668.425239927 -1122300.42532239 -162938.018838344
 726399.917317001 -997723.260945955 -261612.089950325
 916438.677729786 -787011.715837468 -363733.611334448
 1084513.68047041 -474024.334326543 -436669.713007173
 1177640.33702627 -91500.0059752980 -443103.166806714
 1170080.31451261 279255.821480483 -380102.189783594
 1084778.37216802 577831.745677475 -284457.005332584
 959695.794553462 795845.695876708 -192777.180158522
 821954.587471723 949122.224948699 -122910.899279013
 688618.255092731 1054085.74840218 -79104.7703201808
 574410.645236982 1121635.75974674 -59456.4043205922
 498603.328869315 1157381.98046937 -58404.6457414611
 93957.1039483580 -1257929.97701984 18266.5391205844
 119514.334932976 -1255890.43925743 -2226.93652064788
 170263.197066667 -1249228.97711861 -44573.9539505917
 251355.549236498 -1230952.80230842 -114564.467772650
 371053.178000438 -1185586.41397782 -219667.532889933
 536810.299928983 -1082137.03696052 -363818.039749830
 742863.112712296 -869551.858853053 -532525.484324978
 945490.388330954 -501012.701105079 -668269.129785395
 1059864.69544906 -18268.8201686143 -684033.996574192
 1041468.07459026 427299.484364286 -569481.194764353
 935507.072646952 741425.622403909 -408245.017592941
 800902.362799309 937416.756679949 -267122.931395046
 668102.750904160 1057085.78310681 -166606.699465271
 549553.253073845 1130737.99197901 -104748.491398175
 453480.382949111 1174909.24133646 -74116.4477121904
 391777.090291885 1197342.26036943 -66570.6690276887
 1273.45256098517 -1261557.38310937 -4558.32861440476
 10277.3595410138 -1261284.52157096 -24600.0497020347
 33588.9253295025 -1259166.00312875 -70158.3322131312
 78909.3791682846 -1250025.33491235 -150862.198298661
 157554.330072846 -1219717.66661121 -281095.851536004
 283935.541807585 -1133388.19124999 -475774.365589885
 466154.240819157 -919190.840961513 -727556.082084217
 672429.269126392 -489417.467160190 -948608.903489529
 802463.923439965 104089.828673990 -967866.927869173
 793219.902701542 609357.177872631 -768788.297681626
 702083.729434712 910102.516238947 -519943.533200996
 593230.791327000 1065391.00995580 -323370.770240367
 491554.981266097 1145727.13132529 -192957.176224549
 403716.891189587 1189665.23783592 -115146.535214779
 333612.741951965 1214322.50497983 -75318.1467227445
 288718.132265205 1226501.06326107 -62341.1007258879
 -92802.5565647221 -1257835.86432712 -28036.6693180258
 -101331.197951375 -1256608.97983925 -47066.8782485432
 -108575.775630913 -1253349.84887137 -94206.6250282899
 -106940.186104086 -1243801.81665805 -181852.325784157
 -87142.4192708589 -1214609.77114826 -329664.577280836
 -35831.4473137913 -1128786.85381634 -562232.849408293
 63808.1660662901 -900416.709178405 -881321.563729461
 212604.640391530 -411537.055333553 -1173450.44628665
 349387.607405974 265076.929693878 -1182882.89870729
 401298.280223207 787492.546092987 -900202.538908237
 386923.337901026 1050852.62627652 -580989.259241695
 347024.543704678 1162336.57063655 -346550.275640311
 300702.749963256 1209117.17362473 -197896.304991344
 255373.622646878 1230474.10484817 -110757.487662306
 216012.372825355 1241220.97658464 -65257.7427710832
 189237.830248008 1246351.27600271 -48445.5501403467
 -189237.814823330 -1246351.28020533 -48445.5022718471
 -216012.352956898 -1241220.98308160 -65257.6849645216
 -255373.601621655 -1230474.11643401 -110757.407425798
 -300702.727919717 -1209117.19715037 -197896.194748205
 -347024.520282686 -1162336.62186931 -346550.127258619
 -386923.329597078 -1050852.73951247 -580989.059958623
 -401298.297478067 -787492.785873846 -900202.321457130
 -349387.673689594 -265077.330868363 -1182882.78922826
 -212604.742618576 411536.663812859 -1173450.56507414
 -63808.2455540795 900416.491368900 -881321.780503116
 35831.3989661376 1128786.75763992 -562233.045581500
 87142.3992102848 1214609.73160514 -329664.728275455
 106940.178046155 1243801.80138338 -181852.434995695
 108575.775419481 1253349.84378494 -94206.6929430640
 101331.199135984 1256608.97794525 -47066.9262648681
 92802.5574998696 1257835.86334895 -28036.7101074348
 -288718.100802567 -1226501.07383305 -62341.0384441734
 -333612.701637671 -1214322.52000450 -75318.0830538006
 -403716.845293175 -1189665.26093340 -115146.457495444
 -491554.931845667 -1145727.16993973 -192957.072840173
 -593230.733303654 -1065391.08244907 -323370.637846051
 -702083.678393052 -910102.648440144 -519943.370719611
 -793219.875898579 -609357.419520135 -768788.133801608
 -802463.963574589 -104090.191242567 -967866.855600604
 -672429.379872595 489417.137643858 -948608.994994040
 -466154.352596204 919190.650048444 -727556.251665866
 -283935.626069061 1133388.10152308 -475774.529050928
 -157554.384605843 1219717.62965217 -281095.981341104
 -78909.4121941355 1250025.32116010 -150862.294973669
 -33588.9409186224 1259165.99907629 -70158.3974812431
 -10277.3735428092 1261284.52053827 -24600.0967997990
 -1273.46303533355 1261557.38297113 -4558.36394818569
 -391777.045484734 -1197342.27847674 -66570.6070449662
 -453480.329105037 -1174909.26660615 -74116.3765758415
 -549553.190111939 -1130738.03007442 -104748.410489971
 -668102.681043127 -1057085.84136589 -166606.609970041
 -800902.290542178 -937416.848289148 -267122.826555289
 -935507.008251944 -741425.768038039 -408244.900665831
 -1041468.04150916 -427299.705736562 -569481.089160546
 -1059864.72535192 18268.5330904666 -684033.957908802
 -945490.483340352 501012.441788614 -668269.189776689
 -742863.224705820 869551.694099807 -532525.597118843
 -536810.390966006 1082136.95097933 -363818.161167140
 -371053.243410241 1185586.37429072 -219667.636601001
 -251355.587344460 1230952.78703369 -114564.548284637
 -170263.221748840 1249228.97160904 -44574.0140808216
 -119514.350251985 1255890.43771444 -2226.98456029434
 -93957.1147913552 1257929.97682058 18266.4970704110
 -498603.275412154 -1157382.00675911 -58404.5811342946
 -574410.582840885 -1121635.79509525 -59456.3402876327
 -688618.181798890 -1054085.80148843 -79104.7009693066
 -821954.513563531 -949122.298690882 -122910.824093037
 -959695.723573921 -795845.801214194 -192777.098646647
 -1084778.31454251 -577831.893224972 -284456.925367094
 -1170080.28934933 -279256.017235447 -380102.123425988
 -1177640.36306233 91499.7882972337 -443103.142560448
 -1084513.75425345 474024.140368882 -436669.740309053
 -916438.766153436 787011.581815771 -363733.678531365
 -726399.996579314 997723.182844970 -261612.167725869
 -552668.481129528 1122300.38656101 -162938.096251154
 -410600.990982327 1190015.18961549 -82583.9306868018
 -302700.571282427 1224484.21000129 -23668.8512979898
 -227778.015163490 1240737.87989738 15366.2004051054
 -186323.953742680 1247200.41501218 36385.9859574791
 -608039.908144924 -1104782.47341926 -35952.5721984881
 -693673.901012027 -1053296.86085790 -30523.3169987431
 -815934.665759726 -961354.292725685 -39974.6918489230
 -947949.912886161 -829607.627404439 -68495.0956671430
 -1071277.34222336 -656260.490278752 -115049.797291893
 -1170303.23999627 -437862.497398305 -173828.049362852
 -1227827.70125118 -173192.604437400 -232363.699246222
 -1225436.71263528 126363.823656656 -271820.673083306
 -1154181.57473445 428369.978187543 -275524.019370492
 -1026375.25513128 692406.434983467 -242232.523346126
 -868929.539758639 895574.462846492 -185626.688143194
 -707279.286753638 1037516.07111905 -121925.565891309
 -558364.302356691 1129546.47532505 -62477.9709452811
 -432185.916789780 1185153.82091835 -13235.7474350382
 -335964.702046558 1215785.40309715 23302.4357874947
 -278626.949839158 1229576.01837171 45379.1668879860
 -715738.667472746 -1038877.66774872 884.452531736960
 -805510.672702297 -970863.463820524 11230.3918034361
 -925141.211218733 -857667.029259511 8392.68400779266
 -1043455.84529657 -708959.856916483 -11191.5645166149
 -1143358.68746055 -531276.239511354 -45009.9995348423
 -1214924.42686583 -328450.279154145 -87341.1818516635
 -1250594.43254146 -103620.011433195 -129714.646227225
 -1243725.30937812 136000.720596856 -161865.962229243
 -1191524.29048585 375721.568407001 -175078.836913351
 -1098684.77948447 597249.568270842 -166535.700221927
 -976130.838247674 786868.923899153 -139840.316585155
 -836722.147621517 938666.273134033 -101740.386667515
 -692860.951110455 1052610.68970266 -59193.4900893083
 -556742.196241378 1131927.77846912 -18084.8603327289
 -442230.397054678 1181395.85613618 16897.8680336733
 -368418.237562333 1205883.29388407 40778.8509123486
 -812062.236658415 -964238.499783653 48461.0178107654
 -900015.069355032 -881961.532788557 60548.8276853448
 -1008752.82051975 -755318.957956559 58825.5876624311
 -1108083.04515305 -601697.735815269 40758.1976794559
 -1185327.83158507 -431794.605948695 10038.9671983256
 -1235996.86897559 -251175.919508623 -27781.7972867567
 -1258269.22595755 -62432.3617517954 -66409.2322891373
 -1250742.76163783 131577.445842098 -99394.9237899097
 -1212792.34065970 325540.728269416 -121274.084593311
 -1145620.38578683 512321.409525816 -128957.884326856
 -1052227.23251848 685160.986683620 -122154.428459180
 -936852.080229603 838631.932108394 -102733.116065664
 -805433.267870131 968169.035971706 -73995.9438929841
 -667456.903182948 1069781.88971875 -40217.1821758834
 -538962.563211151 1140625.62330840 -6478.72118141636
 -447938.668081606 1179196.98382461 19870.9309087935
 -880170.822029070 -898861.751998882 94320.2298614949
 -962249.002202189 -809147.565709212 104434.216551388
 -1058568.71082237 -679069.526084731 99228.4945461162
 -1142705.54475083 -528907.975718266 77651.9293789804
 -1205248.21423794 -370094.002529837 44233.4973370113
 -1244344.98358782 -207690.060203173 4453.27200943802
 -1260305.16761878 -43108.5102390386 -36358.9292652580
 -1253408.46630552 123069.467778815 -73284.0611131974
 -1223665.91565836 289403.309229783 -102161.060986016
 -1171116.20423200 453456.453655260 -120056.285727053
 -1095832.07048699 612336.985760098 -125478.763467750
 -997994.316424882 762601.925353434 -118300.797756488
 -879033.546267451 899394.296331648 -99696.3147840620
 -744483.843714561 1015911.15581512 -72234.0699209289
 -608587.427548716 1104335.15241348 -40182.6466586117
 -501892.055135121 1157377.11362169 -11489.6812803988
 513350.350042211 -1152288.51909482 15875.0682754799
 626851.699949993 -1094773.27228361 -8823.80202631181
 767921.778884009 -1000037.81401723 -42070.6901561965
 903523.780866362 -877360.979249706 -73701.5631985080
 1019937.82941155 -736036.587139734 -97603.2655493387
 1112983.64859626 -583654.576035665 -110291.272315334
 1182613.83041672 -425241.945429281 -110196.401363910
 1229801.48330070 -263974.352622297 -97238.2833455377
 1255320.28629372 -102151.826001602 -72700.8540730336
 1259592.46736761 58615.9235535451 -39248.1920053697
 1242620.81125305 217812.809651929 -728.224764562166
 1203697.94865967 375760.953293603 38267.2874835476
 1141655.11520930 531858.956396079 72794.7754765094
 1057059.67146738 681592.855135851 98007.4573896542
 958016.889287935 813342.878037222 110573.204277308
 871693.659813601 905037.438708236 112280.135803978
 457465.168639912 -1175258.87828678 32274.1290867378
 553760.420121929 -1133498.55172656 8936.51269413178
 687417.488760893 -1057519.98925790 -25653.4478111967
 827628.517927993 -950082.993064955 -62632.0486652296
 958028.839521969 -815243.763356612 -95434.6890354416
 1069743.22441035 -658065.898081186 -118945.947933115
 1157877.42311524 -483856.278511243 -129431.084767995
 1219429.56860168 -298284.555147344 -124768.915597722
 1252563.25418293 -107722.753994698 -105026.346510895
 1256802.67570364 81631.2836119670 -73026.0145357473
 1232827.09983926 265580.188075807 -33969.6411885656
 1181507.63048451 442215.603234726 5874.54522277270
 1103756.41833930 609626.026613815 40339.9004560926
 1002938.82632087 762591.857434660 64162.2985204887
 890859.190998292 890155.915247411 74443.1278417704
 799137.422323237 973369.186920950 74035.3774514261
 376145.009198311 -1203365.66731902 44445.8512350179
 454124.443214964 -1176784.00514012 22356.7940464807
 573600.776173807 -1123535.59068927 -14119.3819365581
 713088.381540783 -1039034.67318040 -58833.1450748096
 857718.287904559 -919054.850382938 -105862.890101400
 994860.236343209 -761437.970330560 -148373.711960590
 1112369.72004106 -567679.580651621 -178669.892723761
 1198595.96836225 -344975.617440848 -189496.593415346
 1244480.69851465 -107247.900303125 -176960.757864581
 1246767.25180586 128367.701284327 -143675.272786897
 1208419.93734929 348733.568536866 -98262.8317892571
 1135333.37166485 547676.162772929 -51170.1752330999
 1034097.36680679 722541.328205081 -11229.2438682405
 913784.677380495 869656.350694121 15646.9166598830
 791075.015858825 982344.529943301 27367.4020211914
 698613.519180235 1050102.62545560 27803.9160698673
 285908.369430048 -1227907.65927079 45261.6340065172
 346869.928155005 -1212711.77613437 23681.8894035425
 447830.789125537 -1179302.69919998 -15561.4552594250
 578049.700417800 -1119165.60314603 -69830.7060012272
 729026.693971546 -1020627.86866267 -135603.333679374
 889346.429390776 -870796.411280566 -205732.762460715
 1041135.24747154 -660348.843958933 -267443.885092616
 1159927.65274915 -392552.406022570 -303347.786925648
 1222094.84917311 -91704.6033605323 -299372.470788466
 1218275.72713184 203569.562214115 -256735.499961111
 1157551.28747993 463299.588260231 -192296.487982496
 1056965.87390906 677168.496184489 -125759.294232464
 932580.510972862 846663.991466394 -70732.6447034424
 799330.711823131 975440.098061762 -33711.4097679195
 675306.702601347 1065490.92561924 -15471.7731272643
 588292.677950570 1115945.31700812 -11278.5387506574
 194481.453213340 -1245981.98510917 35430.0445723597
 239281.733186545 -1238591.36683537 13605.4798916419
 318788.680238436 -1220267.76463867 -29492.2168466982
 431091.736638184 -1181794.46273465 -95242.8126997337
 575922.724375746 -1107173.67596171 -184469.232458955
 748386.877203151 -972560.516129686 -292562.053955446
 930509.948466104 -751015.042221182 -402090.876646159
 1084553.30429197 -432023.455079713 -478172.871804026
 1164036.75740996 -51825.4592016728 -483613.461450365
 1149291.15090131 312609.894493259 -415877.788832030
 1062141.28783681 605257.689858039 -311558.091628245
 937338.720247879 818083.778383548 -209008.339519552
 800425.035980724 966636.878187924 -128383.559778170
 667814.273801923 1067678.17090606 -75078.9584107834
 553742.080410824 1132572.25255976 -46895.9703274239
 477845.296931852 1166967.24588629 -37426.5967947727
 103926.939656511 -1257145.50083312 18270.5190851628
 132646.880972978 -1254566.08478431 -4263.19083180403
 187925.867075804 -1246410.71881759 -51900.0907453329
 273739.965570969 -1224587.72841096 -130386.953309884
 396662.862259629 -1171890.90644884 -246738.136503987
 560608.926453556 -1055925.24385487 -402851.016989628
 754638.971964804 -828269.390304025 -579688.942447807
 934465.010824145 -452935.912172409 -716361.385006850
 1028417.70227941 21284.8430982471 -730378.953702512
 1003979.38517318 456100.341227774 -612819.144444872
 900629.700345377 764593.687841828 -442506.572027109
 770279.394728080 956569.903038981 -288432.150732699
 641404.266863611 1072090.24824304 -175420.913776788
 526040.335445756 1141991.20378572 -103378.367558716
 432004.182456846 1183535.24175758 -64545.7107527120
 371318.411213273 1204656.91636364 -49737.1317051540
 13585.9868817589 -1261490.81335036 -2404.10316847845
 25583.3086886772 -1261046.71379296 -25614.6611820920
 53456.9502434070 -1258053.43157501 -77416.7210102388
 103987.975915829 -1246028.25490955 -167778.186159453
 186757.228378922 -1208358.81707899 -310709.088625756
 311863.465121565 -1107315.49872414 -517825.256555373
 479372.484029898 -873892.625377027 -773345.415571598
 653758.132376967 -440044.757752142 -985144.835262711
 755290.062456410 130750.481704138 -1001993.34529112
 741506.273748901 620570.735970889 -810314.654048983
 657666.954908032 920857.530386506 -557714.098863760
 556848.936126878 1077058.55898558 -348444.477311987
 461837.865507545 1155992.59652690 -204783.626487512
 379183.187209158 1197581.29063898 -116484.306961646
 312571.580282406 1220290.94739657 -68836.3408433914
 269536.739046240 1231435.04370482 -49670.0146867665
 -77970.9981520335 -1258946.26769893 -22896.4934667461
 -83723.5679783831 -1257939.65403779 -46126.1518361724
 -86398.9251713239 -1254610.79511917 -100181.881688475
 -78943.3961974313 -1243414.69841974 -198083.969239075
 -53316.3639597383 -1208220.94657247 -359038.912259650
 454.984113562068 -1108262.62042535 -602746.371267668
 91283.0601075081 -860836.430616792 -917702.279380030
 211284.720555842 -376086.910610935 -1185523.86456187
 313784.162011173 261746.471163299 -1193556.74998027
 353222.765669607 770445.212425943 -934450.257307263
 342246.357436692 1044226.53159054 -619683.639014835
 309753.344188896 1164301.51911169 -374171.443695221
 270718.546708619 1213757.24515129 -212259.862502753
 231424.546716664 1234848.65514513 -114633.803837231
 196368.654837778 1244659.91891772 -61728.9928307755
 172022.216096744 1249151.35423724 -39732.6351428737
 -172022.201218352 -1249151.35807448 -39732.5789200368
 -196368.637147135 -1244659.92492778 -61728.9279244755
 -231424.530463411 -1234848.66618520 -114633.717724702
 -270718.528770649 -1213757.26963513 -212259.745376019
 -309753.327378154 -1164301.57378907 -374171.287473276
 -342246.347728242 -1044226.64899801 -619683.446533811
 -353222.774251741 -770445.449581024 -934450.058531087
 -313784.208134692 -261746.838435256 -1193556.65731183
 -211284.789532001 376086.555857467 -1185523.96480824
 -91283.1168182704 860836.207523618 -917702.483008109
 -455.017506786886 1108262.51584435 -602746.563534270
 53316.3410947441 1208220.90095609 -359039.069161119
 78943.3869053977 1243414.67989382 -198084.089233357
 86398.9193702805 1254610.78912592 -100181.961746778
 83723.5653417065 1257939.65217248 -46126.2074922171
 77970.9994871805 1258946.26671942 -22896.5427772639
 -269536.707265653 -1231435.05321881 -49669.9512716666
 -312571.540453851 -1220290.96183783 -68836.2656901684
 -379183.145172530 -1197581.31244849 -116484.219575726
 -461837.818900124 -1155992.63445622 -204783.517489803
 -556848.884786218 -1077058.63023499 -348444.339124091
 -657666.911563918 -920857.658906196 -557713.937773417
 -741506.246857126 -620570.967159795 -810314.501603649
 -755290.086500684 -130750.808469377 -1001993.28452707
 -653758.211442513 440044.447535574 -985144.921361092
 -479372.573561710 873892.430637788 -773345.580132035
 -311863.539761899 1107315.39828945 -517825.426371870
 -186757.279680489 1208358.77237979 -310709.231626792
 -103988.006713562 1246028.23845460 -167778.289276148
 -53456.9733488063 1258053.42604877 -77416.7948593291
 -25583.3229727860 1261046.71242827 -25614.7141012160
 -13585.9956556377 1261490.81316649 -2404.15006481323
 -371318.365136342 -1204656.93337447 -49737.0636873799
 -432004.128136555 -1183535.26558138 -64545.6374756438
 -526040.273919414 -1141991.23958657 -103378.285153508
 -641404.202652106 -1072090.30207004 -175420.819592614
 -770279.327414708 -956569.991284418 -288432.037836695
 -900629.643979586 -764593.825191358 -442506.449425773
 -1003979.35046534 -456100.554134919 -612819.042847046
 -1028417.72285834 -21285.1135878879 -730378.916843425
 -934465.087296178 452935.664155598 -716361.442066383
 -754639.066808464 828269.221825233 -579689.059705655
 -560609.011991821 1055925.15091024 -402851.141574283
 -396662.925387621 1171890.86132109 -246738.249353455
 -273740.007129923 1224587.70884049 -130387.049864084
 -187925.893265874 1246410.71202626 -51900.1590109864
 -132646.896916044 1254566.08292135 -4263.24300000554
 -103926.944318600 1257145.50117167 18270.4692713404
 -477845.238420643 -1166967.27194276 -37426.5313934300
 -553742.014956512 -1132572.28730824 -46895.9040028618
 -667814.201611858 -1067678.22100340 -75078.8881077399
 -800424.961017937 -966636.950752642 -128383.480783247
 -937338.652313202 -818083.879321726 -209008.249101655
 -1062141.23674603 -605257.826712338 -311557.999939066
 -1149291.12748728 -312610.076154129 -415877.716985283
 -1164036.77796828 51825.2492154591 -483613.434470068
 -1084553.36539311 432023.263584559 -478172.906232853
 -930510.027385646 751014.903325609 -402090.953437830
 -748386.954264065 972560.430129031 -292562.142721069
 -575922.779193423 1107173.63332354 -184469.317227114
 -431091.769734795 1181794.44459212 -95242.8880131684
 -318788.702936604 1220267.75709900 -29492.2834575000
 -239281.735748700 1238591.36698681 13605.4210445188
 -194481.454486516 1245981.98645713 35429.9901793241
 -588292.604558484 -1115945.35631056 -11278.4781621305
 -675306.629547328 -1065490.97284363 -15471.7095730796
 -799330.634853725 -975440.163227092 -33711.3492283903
 -932580.439544551 -846664.075684208 -70732.5783755438
 -1056965.81483908 -677168.601550970 -125759.223335747
 -1157551.24699433 -463299.715837663 -192296.424318183
 -1218275.71367883 -203569.712856185 -256735.444352642
 -1222094.86689837 91704.4444218362 -299372.447117106
 -1159927.69679392 392552.266035670 -303347.799661660
 -1041135.30483105 660348.735073828 -267443.930646594
 -889346.483774719 870796.342353796 -205732.819111942
 -729026.731703841 1020627.83350455 -135603.395444148
 -578049.727042604 1119165.58549727 -69830.7684583447
 -447830.792136297 1179302.69723693 -15561.5173821807
 -346869.923708993 1212711.77867057 23681.8246497621
 -285908.360107371 1227907.66369338 45261.5729150348
 -698613.440443508 -1050102.67609371 27803.9819354463
 -791074.935562890 -982344.592891507 27367.4635277471
 -913784.601856107 -869656.428987569 15646.9757531435
 -1034097.30299056 -722541.420510309 -11229.1813396180
 -1135333.32394509 -547676.266636528 -51170.1223550732
 -1208419.90921014 -348733.681266030 -98262.7777653318
 -1246767.24414421 -128367.825319648 -143675.228451904
 -1244480.71324238 107247.783255078 -176960.725228995
 -1198595.99825079 344975.516481162 -189496.588161113
 -1112369.75342144 567679.507888180 -178669.916090874
 -994860.265978570 761437.923301853 -148373.754598867
 -857718.306023162 919054.827632507 -105862.940810718
 -713088.383475930 1039034.66867539 -58833.2011814492
 -573600.766099085 1123535.59506155 -14119.4433032640
 -454124.424354080 1176784.01366652 22356.7283598273
 -376144.988501292 1203365.67624727 44445.7846625278
 -799137.335056351 -973369.252496198 74035.4572686661
 -890859.108130316 -890155.991966416 74443.2021510185
 -1002938.76035742 -762591.938606388 64162.3648583831
 -1103756.36690525 -609626.115991180 40339.9570720484
 -1181507.59367588 -442215.700870892 5874.59857823989
 -1232827.08027206 -265580.284786099 -33969.5952249828
 -1256802.67173502 -81631.3840679528 -73025.9705435476
 -1252563.26407257 107722.666472615 -105026.318334322
 -1219429.58695453 298284.482598600 -124768.909667992
 -1157877.44324677 483856.228208278 -129431.092722447
 -1069743.23847790 658065.869715645 -118945.978347956
 -958028.840650760 815243.757090126 -95434.7312349579
 -827628.505219153 950083.000490157 -62632.1039666204
 -687417.461344392 1057520.00555215 -25653.5107688026
 -553760.381578017 1133498.57107777 8936.44661888124
 -457465.128636919 1175258.89575425 32274.0600273943
 -871693.570709742 -905037.513102819 112280.227907313
 -958016.808583696 -813342.961897650 110573.286654693
 -1057059.60611725 -681592.945394402 98007.5345204995
 -1141655.07036177 -531859.044256991 72794.8368928580
 -1203697.91968522 -375761.041152303 38267.3361572806
 -1242620.79564374 -217812.898864001 -728.176578726935
 -1259592.46485525 -58616.0054782682 -39248.1502824842
 -1255320.29430631 102151.751388469 -72700.8205588846
 -1229801.49646272 263974.295505582 -97238.2719371747
 -1182613.84440173 425241.906042953 -110196.403268315
 -1112983.65620360 583654.557209019 -110291.295176721
 -1019937.82462640 736036.588578279 -97603.3047052051
 -903523.763050248 877360.993499999 -73701.6119712972
 -767921.740876400 1000037.84058323 -42070.7524289175
 -626851.646630905 1094773.30225717 -8823.87103327711
 -513350.292234625 1152288.54585485 15874.9952221230
 535355.744974714 -1141226.83949107 50447.5774120292
 652726.738778948 -1079238.62368555 27225.5128007868
 797162.489832051 -977761.911996064 -7939.72124948774
 932722.451086095 -848284.901302211 -44620.4704322936
 1045581.66168162 -701897.082121643 -75159.2029174254
 1132800.22922203 -547093.732081711 -94876.3400979184
 1195788.52736611 -389017.294607276 -101512.428967953
 1236730.17745678 -230439.623773525 -94580.5417714425
 1257219.91101163 -72922.7635274375 -75031.9720811555
 1258032.74858699 82846.4356332062 -45160.8514589702
 1239023.91396061 237273.434210442 -8395.77099836369
 1198893.77799791 391452.559669646 31113.2371336848
 1135539.20306364 545302.194080837 68888.7970221865
 1048473.12315681 694367.721504260 100533.617609959
 945367.990191598 826308.631712885 122649.252736546
 855085.285116642 917803.321322745 134222.388091119
 477237.598031161 -1166581.76961266 53671.9736156866
 577566.076990947 -1121155.89196514 31246.1764075925
 715670.565580853 -1038911.93035019 -5203.21594643061
 857543.924474136 -924111.252067068 -46757.2702313520
 985837.682419621 -782534.306769196 -85519.3169390326
 1092245.52928083 -620710.189903367 -115186.782380269
 1173225.30898468 -444817.573264456 -131259.787413640
 1227358.93241669 -260642.448274526 -131167.816530507
 1254171.43936345 -73883.4749379257 -114650.179830013
 1253897.19787774 110485.115477497 -84168.2085542626
 1227091.33110999 289504.583200094 -44535.2931931708