# OOMMF OVF 2.0
#
# Segment count: 1
#
# Begin: Segment
# Begin: Header
#
# Title: Oxs_MinDriver::Magnetization
# Desc: Oxs vector field output
# Desc:  MIF source file: C:/Users/grl31/Documents/GitHub/phd-work/Skyrmions/stdprob3/drive-16/stdprob3.mif
# Desc:  Iteration: 1470, State id: 3012
# Desc:  Stage: 0, Stage iteration: 1470
# Desc:  Stage simulation time: -1 s
# Desc:  Total simulation time: -2 s
# meshunit: m
# meshtype: rectangular
# xbase: 3.1249999999999999e-09
# ybase: 3.1249999999999999e-09
# zbase: 3.1249999999999999e-09
# xnodes: 16
# ynodes: 16
# znodes: 16
# xstepsize: 6.2499999999999997e-09
# ystepsize: 6.2499999999999997e-09
# zstepsize: 6.2499999999999997e-09
# xmin: 0
# ymin: 0
# zmin: 0
# xmax: 9.9999999999999995e-08
# ymax: 9.9999999999999995e-08
# zmax: 9.9999999999999995e-08
# valuedim: 3
# valuelabels: Magnetization_x Magnetization_y Magnetization_z
# valueunits: A/m A/m A/m
#
# End: Header
#
# Begin: Data Text
 -114907.373238797 -1251056.36487110 -114907.347066383
 -107232.920949038 -1251528.91306285 -117157.634627101
 -95345.7269305487 -1252229.27060820 -119918.627023011
 -80766.6076793374 -1252996.46516858 -122580.766345992
 -64371.5866358733 -1253719.28016563 -124874.722397721
 -46751.8923543093 -1254320.19753501 -126667.018343266
 -28344.1599333225 -1254747.14094863 -127889.216894412
 -9495.37525873290 -1254968.18185649 -128507.320007347
 9495.37556442361 -1254968.18177220 -128507.320807864
 28344.1604008155 -1254747.14097973 -127889.216485670
 46751.8924602780 -1254320.19765730 -126667.017093181
 64371.5872248790 -1253719.28042274 -124874.719512735
 80766.6079858324 -1252996.46548464 -122580.762913361
 95345.7248722328 -1252229.27121486 -119918.622324675
 107232.916516588 -1251528.91400340 -117157.628636634
 114907.367714064 -1251056.36583792 -114907.342064745
 -106022.118983200 -1252624.46752850 -106022.094651152
 -99954.8769946484 -1252983.99394823 -107654.839154951
 -89530.9033662382 -1253573.49800157 -109941.499760026
 -76196.1494857769 -1254248.34234812 -112270.536827273
 -60907.9523186226 -1254897.60868035 -114331.290518531
 -44317.5282441699 -1255443.22555418 -115964.197144618
 -26897.1193156994 -1255833.09628881 -117086.336338351
 -9015.08395458486 -1256035.51271044 -117656.066526376
 9015.08517322925 -1256035.51264823 -117656.067097160
 26897.1206601566 -1255833.09636024 -117086.335263325
 44317.5293886597 -1255443.22568042 -115964.195340512
 60907.9536778661 -1254897.60884601 -114331.287976178
 76196.1498045210 -1254248.34260601 -112270.533729932
 89530.9016486121 -1253573.49859630 -109941.494377561
 99954.8734433517 -1252983.99480132 -107654.832523208
 106022.114632354 -1252624.46838745 -106022.088853685
 -92981.5798549877 -1254694.49933565 -92981.5576525563
 -88250.1441617282 -1254957.31506667 -94039.7805986051
 -79633.5763993076 -1255405.93593235 -95728.0546895222
 -68173.5510145506 -1255938.60053623 -97570.6387399177
 -54724.8297807860 -1256463.65400671 -99265.8555824964
 -39930.7135126930 -1256911.51632347 -100639.997867468
 -24276.1431877019 -1257234.34235350 -101596.792261619
 -8143.17637612453 -1257402.71417804 -102085.914675636
 8143.17824741176 -1257402.71418262 -102085.914469932
 24276.1450847795 -1257234.34238700 -101596.791393725
 39930.7158445895 -1256911.51639563 -100639.996040981
 54724.8322973735 -1256463.65406731 -99265.8534279990
 68173.5527716347 -1255938.60075225 -97570.6347316607
 79633.5758706033 -1255405.93639395 -95728.0490757597
 88250.1420598356 -1254957.31572850 -94039.7737389890
 92981.5771329675 -1254694.50001327 -92981.5512307449
 -77674.3433476161 -1256774.77173087 -77674.3229470289
 -74014.9622475534 -1256955.73576392 -78316.6304984381
 -67157.0942476780 -1257268.25657152 -79472.5526756393
 -57790.8557955889 -1257647.61050380 -80821.6289087204
 -46581.9232124254 -1258028.87649096 -82115.1707279786
 -34089.6167657023 -1258358.68014497 -83191.1116136889
 -20763.8428459420 -1258598.56418438 -83952.0576415290
 -6971.30446696872 -1258724.30082507 -84344.3320290664
 6971.30840972255 -1258724.30083691 -84344.3315264282
 20763.8466557103 -1258598.56419952 -83952.0564722884
 34089.6204717260 -1258358.68011769 -83191.1105077662
 46581.9270547539 -1258028.87644898 -82115.1691914168
 57790.8589444274 -1257647.61057031 -80821.6256222142
 67157.0957848984 -1257268.25683446 -79472.5472168645
 74014.9620416723 -1256955.73620396 -78316.6236305241
 77674.3419828594 -1256774.77225449 -77674.3158396523
 -61125.5954616969 -1258601.11086661 -61125.5774921448
 -58382.8441634796 -1258713.49693187 -61491.5202923691
 -53170.5441455562 -1258907.93392583 -62234.5406733024
 -45933.9632403043 -1259146.81772770 -63156.8946845223
 -37150.1561901461 -1259390.14700773 -64076.1611978474
 -27257.1597461510 -1259602.96888873 -64860.1489992962
 -16630.3229891092 -1259758.96547285 -65423.3306016431
 -5588.15948563822 -1259841.09770945 -65716.1465301844
 5588.16530218923 -1259841.09771024 -65716.1460203159
 16630.3280793102 -1259758.96545563 -65423.3296393198
 27257.1647391448 -1259602.96881599 -64860.1483136639
 37150.1608654194 -1259390.14693093 -64076.1599965781
 45933.9675012294 -1259146.81771687 -63156.8918015285
 53170.5473155216 -1258907.93402612 -62234.5359363865
 58382.8462942346 -1258713.49715005 -61491.5138033846
 61125.5967803652 -1258601.11113263 -61125.5706960029
 -43933.7229065609 -1260035.35197279 -43933.7078942709
 -42020.4651538610 -1260093.87052623 -44126.5100526558
 -38359.5532738148 -1260195.01465361 -44570.1765060879
 -33227.5300481447 -1260320.06494045 -45151.9221557360
 -26939.7314165430 -1260448.52928259 -45751.3586630652
 -19804.4041557884 -1260561.76146861 -46273.7724650954
 -12099.2324207464 -1260645.24076327 -46654.2220458829
 -4068.31494577865 -1260689.34555749 -46853.5348750557
 4068.32204345183 -1260689.34552337 -46853.5351767040
 12099.2386126044 -1260645.24071886 -46654.2216399621
 19804.4099986056 -1260561.76139310 -46273.7720214779
 26939.7372531755 -1260448.52919011 -45751.3577742002
 33227.5361505779 -1260320.06488369 -45151.9192492570
 38359.5584107787 -1260195.01462615 -44570.1728613630
 42020.4698094654 -1260093.87055753 -44126.5047255598
 43933.7273467980 -1260035.35204834 -43933.7012871859
 -26439.5789718946 -1261012.02569398 -26439.5657661307
 -25307.6935282553 -1261033.37741088 -26528.7131793651
 -23134.7880167281 -1261070.23503598 -26759.5741497967
 -20072.5080999727 -1261115.94623748 -27075.7360577773
 -16299.6423129625 -1261163.13570052 -27409.8108250649
 -11997.8827631771 -1261204.93010982 -27705.7032906380
 -7336.47862819906 -1261235.85841574 -27923.4032060210
 -2467.97428524371 -1261252.23676649 -28038.1039552613
 2467.98324003316 -1261252.23673582 -28038.1045467442
 7336.48748008627 -1261235.85837332 -27923.4027962048
 11997.8910669308 -1261204.93005697 -27705.7021008195
 16299.6498663145 -1261163.13563419 -27409.8093851771
 20072.5152599921 -1261115.94615854 -27075.7344268256
 23134.7949842493 -1261070.23495340 -26759.5720176362
 25307.7004681180 -1261033.37735473 -26528.7092279091
 26439.5860022259 -1261012.02566857 -26439.5599480588
 -8823.52490904058 -1261504.54694129 -8823.51254271435
 -8448.70826996270 -1261506.93509501 -8848.89567707877
 -7728.21494372362 -1261511.05441602 -8919.93267440432
 -6710.43969304844 -1261516.16974761 -9019.66647878186
 -5453.25907250264 -1261521.46222590 -9126.51236093777
 -4016.58375431028 -1261526.16030648 -9221.97572571377
 -2457.15366787133 -1261529.64329561 -9292.59927408305
 -826.765460017098 -1261531.48985933 -9329.92342552408
 826.777110995834 -1261531.48984857 -9329.92384810082
 2457.16445512922 -1261529.64326952 -9292.59996226905
 4016.59342694227 -1261526.16027983 -9221.97515864258
 5453.26744165312 -1261521.46219635 -9126.51144505812
 6710.44769797584 -1261516.16970893 -9019.66593356330
 7728.22329271294 -1261511.05437371 -8919.93142424485
 8448.71723872727 -1261506.93505611 -8848.89266024208
 8823.53363453005 -1261504.54691299 -8823.50786227585
 8823.54572010246 -1261504.54648488 8823.55698384500
 8448.72893349674 -1261506.93462727 8848.94262963623
 7728.23320672647 -1261511.05395871 8919.98152688429
 6710.45622797509 -1261516.16929845 9019.71699907330
 5453.27522744508 -1261521.46178938 9126.56304584382
 4016.59890840209 -1261526.15988618 9222.02662052563
 2457.16756924300 -1261529.64288836 9292.65088489459
 826.778959834456 -1261531.48946714 9329.97525877287
 -826.764733228736 -1261531.48947818 9329.97502697024
 -2457.15464919579 -1261529.64291767 9292.65032213613
 -4016.58723993991 -1261526.15992104 9222.02693436891
 -5453.26500995788 -1261521.46183307 9126.56311161153
 -6710.44606263387 -1261516.16936025 9019.71591695199
 -7728.22278457939 -1261511.05401719 8919.98228558023
 -8448.71869867973 -1261506.93468206 8848.94459058431
 -8823.53559830688 -1261504.54652436 8823.56146102408
 26439.5994192801 -1261012.02431976 26439.6108612267
 25307.7132980562 -1261033.37601898 26528.7604826030
 23134.8066802442 -1261070.23363280 26759.6241402336
 20072.5260690224 -1261115.94484475 27075.7876060526
 16299.6592003726 -1261163.13436921 27409.8620378874
 11997.8986394302 -1261204.92883598 27705.7544025829
 7336.49301725300 -1261235.85719094 27923.4547466434
 2467.98775659971 -1261252.23557825 28038.1562206987
 -2467.97201851364 -1261252.23561135 28038.1561171926
 -7336.47778463836 -1261235.85727829 27923.4548035073
 -11997.8839535848 -1261204.92895998 27705.7551176955
 -16299.6456321258 -1261163.13454970 27409.8618020533
 -20072.5129367245 -1261115.94509583 27075.7856469145
 -23134.7943667753 -1261070.23385983 26759.6240870899
 -25307.7017186970 -1261033.37621444 26528.7622380215
 -26439.5880839768 -1261012.02447913 26439.6145952201
 43933.7418258565 -1260035.34967009 43933.7550170908
 42020.4840245082 -1260093.86820119 44126.5584774019
 38359.5714163399 -1260195.01230342 44570.2273415809
 33227.5487592805 -1260320.06257418 45151.9744354117
 26939.7487325912 -1260448.52698673 45751.4117176197
 19804.4196086346 -1260561.75927740 46273.8255430606
 12099.2464506518 -1260645.23865967 46654.2752487144
 4068.32797473459 -1260689.34354551 46853.5878801294
 -4068.31109757351 -1260689.34357474 46853.5885591042
 -12099.2295408629 -1260645.23881570 46654.2754179704
 -19804.4027477605 -1260561.75953374 46273.8257761836
 -26939.7323938763 -1260448.52735405 45751.4112187352
 -33227.5333650064 -1260320.06303891 45151.9727921119
 -38359.5576814600 -1260195.01273925 44570.2268397731
 -42020.4714454869 -1260093.86855850 44126.5602526008
 -43933.7295067870 -1260035.35002235 43933.7572333293
 61125.6123236092 -1258601.10761292 61125.6276250533
 58382.8614014365 -1258713.49369213 61491.5702425624
 53170.5615330709 -1258907.93061796 62234.5927312465
 45933.9812756405 -1259146.81437984 63156.9483131623
 37150.1736517703 -1259390.14374726 64076.2151569592
 27257.1760804166 -1259602.96573792 64860.2033246531
 16630.3379750677 -1259758.96246141 65423.3847790375
 5588.17324797362 -1259841.09479760 65716.2011826924
 -5588.15379024632 -1259841.09487590 65716.2013362085
 -16630.3184031612 -1259758.96265517 65423.3860231396
 -27257.1567838989 -1259602.96610294 64860.2043451731
 -37150.1552151385 -1259390.14426682 64076.2156345620
 -45933.9644345907 -1259146.81504372 63156.9473259281
 -53170.5466481120 -1258907.93127189 62234.5922203467
 -58382.8482886772 -1258713.49425389 61491.5711933236
 -61125.5994886186 -1258601.10819446 61125.6284857313
 77674.3580859144 -1256774.76755749 77674.3757342411
 74014.9777578842 -1256955.73162996 78316.6821886469
 67157.1106449657 -1257268.25234249 79472.6057232258
 57790.8736696277 -1257647.60618105 80821.6833932926
 46581.9406642006 -1258028.87225738 82115.2256876934
 34089.6330473967 -1258358.67607740 83191.1664684516
 20763.8581687736 -1258598.56021796 83952.1133157385
 6971.31859454825 -1258724.29694914 84344.3887042694
 -6971.29624600047 -1258724.29708944 84344.3884576857
 -20763.8366267486 -1258598.56048401 83952.1146551147
 -34089.6123722094 -1258358.67646940 83191.1690111542
 -46581.9208675792 -1258028.87288409 82115.2273164007
 -57790.8556515827 -1257647.60696098 80821.6841405869
 -67157.0948135250 -1257268.25317232 79472.6059732823
 -74014.9641142768 -1256955.73240747 78316.6826040562
 -77674.3450429870 -1256774.76838878 77674.3753269395
 92981.5931819186 -1254694.49429138 92981.6123930710
 88250.1579018672 -1254957.31008562 94039.8341763087
 79633.5913492855 -1255405.93086755 95728.1086742795
 68173.5677077272 -1255938.59535213 97570.6938063951
 54724.8464382876 -1256463.64891827 99265.9108065671
 39930.7298508519 -1256911.51133491 100640.053688005
 24276.1586053376 -1257234.33742213 101596.849602068
 8143.19007943618 -1257402.70934724 102085.973083979
 -8143.16629706015 -1257402.70948188 102085.973322696
 -24276.1351658992 -1257234.33774807 101596.851169395
 -39930.7081035367 -1256911.51179943 100640.056515193
 -54724.8260418758 -1256463.64953565 99265.9142364773
 -68173.5494045510 -1255938.59618933 97570.6958184838
 -79633.5752972346 -1255405.93180020 95728.1097964442
 -88250.1440170104 -1254957.31106835 94039.8340918279
 -92981.5798693895 -1254694.49534798 92981.6114477836
 106022.130927733 -1252624.46176544 106022.150795606
 99954.8893593664 -1252983.98820479 107654.894521965
 89530.9173321281 -1253573.49217697 109941.554800023
 76196.1644671979 -1254248.33640671 112270.593035084
 60907.9681141148 -1254897.60280438 114331.346598322
 44317.5446251955 -1255443.21969578 115964.254308103
 26897.1354273402 -1255833.09048850 117086.394849488
 9015.09822129096 -1256035.50697029 117656.126712166
 -9015.07249170170 -1256035.50711558 117656.127132526
 -26897.1106733628 -1255833.09087604 117086.396379388
 -44317.5216787945 -1255443.22026073 115964.256961238
 -60907.9477211295 -1254897.60347500 114331.350101578
 -76196.1462443907 -1254248.33728416 112270.595600046
 -89530.9009425284 -1253573.49319841 109941.556500333
 -99954.8749422717 -1252983.98940088 107654.893986740
 -106022.117679502 -1252624.46292495 106022.150344570
 114907.384755236 -1251056.35852347 114907.404659844
 107232.932149929 -1251528.90676658 117157.691634518
 95345.7405007229 -1252229.26420659 119918.683081234
 80766.6222971206 -1252996.45874507 122580.822374385
 64371.6021289754 -1253719.27374327 124874.778890545
 46751.9081867280 -1254320.19109986 126667.076223711
 28344.1753453767 -1254747.13448009 127889.276942807
 9495.38943818352 -1254968.17553731 128507.380671053
 -9495.36350374909 -1254968.17560729 128507.381903877
 -28344.1505495583 -1254747.13498919 127889.277443417
 -46751.8853114894 -1254320.19166332 126667.079087135
 -64371.5816688821 -1253719.27445845 124874.782257132
 -80766.6040389704 -1252996.45961202 122580.825542587
 -95345.7240955356 -1252229.26530104 119918.684696258
 -107232.917165528 -1251528.90812592 117157.690828538
 -114907.370510645 -1251056.35987202 114907.404222045
 -117157.660020754 -1251528.91293196 -107232.894732710
 -109166.473069803 -1252084.18203629 -109166.447093269
 -96916.0105205545 -1252871.16214888 -111671.701336729
 -81999.5786824360 -1253712.19021768 -114154.474789435
 -65298.7203316517 -1254493.52929024 -116324.945780809
 -47397.7288710742 -1255137.75403115 -118034.336624845
 -28725.3291852285 -1255593.24896360 -119205.199295963
 -9621.40000744000 -1255828.46510232 -119798.688722345
 9621.40000573833 -1255828.46503175 -119798.689462305
 28725.3297207244 -1255593.24895301 -119205.199278442
 47397.7294988652 -1255137.75415688 -118034.335035690
 65298.7210992808 -1254493.52958531 -116324.942167753
 81999.5783750815 -1253712.19062212 -114154.470568424
 96916.0080148308 -1252871.16284753 -111671.695673112
 109166.468640691 -1252084.18291939 -109166.441393626
 117157.654634076 -1251528.91385392 -107232.889857648
 -107654.862963297 -1252983.99388511 -99954.8521435011
 -101479.310783318 -1253376.77290132 -101479.286326671
 -90839.2596788848 -1254018.56965706 -103610.263850694
 -77254.5142903833 -1254745.57392841 -105805.083279438
 -61716.4068465736 -1255439.09590293 -107764.523491413
 -44885.3960416936 -1256018.51078139 -109326.267271981
 -27233.6986602707 -1256431.00290830 -110403.312935302
 -9126.56610456437 -1256644.72797036 -110951.180139696
 9126.56687983674 -1256644.72790441 -110951.180822892
 27233.7000492300 -1256431.00293619 -110403.312275225
 44885.3972931505 -1256018.51088538 -109326.265563536
 61716.4080946392 -1255439.09612160 -107764.520229170
 77254.5144680146 -1254745.57425946 -105805.079223784
 90839.2574770026 -1254018.57032307 -103610.257720311
 101479.307063332 -1253376.77372191 -101479.279911443
 107654.858556771 -1252983.99466925 -99954.8470598517
 -94039.8028153083 -1254957.31499092 -88250.1215647791
 -89309.8365147558 -1255227.84434127 -89309.8136322527
 -80600.5719981692 -1255701.18512128 -90925.8620939263
 -68987.5226247805 -1256264.28386948 -92683.3410864673
 -55361.6047362565 -1256817.83264241 -94305.1387359407
 -40384.1936729745 -1257288.58909617 -95624.0113617087
 -24546.9401133600 -1257627.14993579 -96544.4477657884
 -8233.16424793428 -1257803.48930411 -97015.6081247967
 8233.16583389974 -1257803.48928016 -97015.6083007208
 24546.9419793984 -1257627.14999657 -96544.4464996263
 40384.1959351131 -1257288.58913716 -95624.0098673416
 55361.6069252789 -1256817.83275755 -94305.1359164946
 68987.5235085873 -1256264.28413786 -92683.3367908896
 80600.5710818037 -1255701.18559381 -90925.8563806416
 89309.8342061730 -1255227.84497068 -89309.8070946661
 94039.7998532448 -1254957.31568465 -88250.1148560367
 -78316.6508111910 -1256955.73571739 -74014.9415444223
 -74700.0302626382 -1257135.33281850 -74700.0092171653
 -67819.2549557613 -1257457.52489523 -75832.3984888356
 -58371.4189127624 -1257852.38018696 -77133.6374810670
 -47048.3934088017 -1258249.83214349 -78378.8205288086
 -34427.3734155950 -1258593.41442424 -79415.3892302130
 -20967.4628918602 -1258843.07435456 -80149.3017336817
 -7039.26108863826 -1258973.84114740 -80527.9270120048
 7039.26469863072 -1258973.84115747 -80527.9265389382
 20967.4665111467 -1258843.07434800 -80149.3008898640
 34427.3765963042 -1258593.41441471 -79415.3880024615
 47048.3966314866 -1258249.83215120 -78378.8184704830
 58371.4213361475 -1257852.38031824 -77133.6335062934
 67819.2555829513 -1257457.52518103 -75832.3931886863
 74700.0298250208 -1257135.33325152 -74700.0023673160
 78316.6495494154 -1256955.73621509 -74014.9344273280
 -61491.5384672174 -1258713.49690567 -58382.8255858030
 -58799.8305401002 -1258822.70118471 -58799.8114744199
 -53596.3262279300 -1259020.06290077 -59542.8076862101
 -46321.9620634563 -1259265.88347750 -60441.2231774118
 -37470.1615672331 -1259517.33201665 -61331.1361441511
 -27492.8224329079 -1259737.47584734 -62089.1905196653
 -16773.8297803892 -1259898.83691224 -62633.7792299597
 -5636.27795956136 -1259983.77547323 -62916.9995624794
 5636.28353205786 -1259983.77546015 -62916.9993252409
 16773.8347866887 -1259898.83685871 -62633.7789660445
 27492.8267391395 -1259737.47579641 -62089.1896463140
 37470.1653634952 -1259517.33196049 -61331.1349782686
 46321.9653842015 -1259265.88351131 -60441.2199278647
 53596.3286199660 -1259020.06302635 -59542.8028777173
 58799.8320652475 -1258822.70141834 -58799.8049476094
 61491.5395741542 -1258713.49717550 -58382.8186024427
 -44126.5266032141 -1260093.87046948 -42020.4494756795
 -42256.8878503995 -1260150.04790196 -42256.8706937525
 -38614.0380857052 -1260251.70018277 -42708.7715593909
 -33467.6293651728 -1260379.37927382 -43280.1225156910
 -27142.4226212618 -1260511.30062671 -43863.2056007615
 -19955.9715520007 -1260627.81891740 -44369.9480496096
 -12192.3851642787 -1260713.77609064 -44738.7017941619
 -4099.68483221663 -1260759.19657291 -44931.8568509010
 4099.69200647124 -1260759.19653326 -44931.8573087999
 12192.3915136298 -1260713.77602726 -44738.7018498283
 19955.9770352708 -1260627.81886505 -44369.9470709112
 27142.4278077100 -1260511.30052629 -43863.2052771031
 33467.6341429690 -1260379.37923454 -43280.1199649560
 38614.0423563882 -1260251.70018736 -42708.7675627488
 42256.8919568703 -1260150.04793342 -42256.8656492998
 44126.5303184513 -1260093.87057477 -42020.4424169327
 -26528.7281738062 -1261033.37737986 -25307.6793558830
 -25425.3665002003 -1261053.73921466 -25425.3509319985
 -23267.3870170993 -1261090.56601121 -25664.0592632440
 -20201.1386628034 -1261137.01291042 -25976.5198411853
 -16410.2127235926 -1261185.27853410 -26302.6433308679
 -12081.5454745334 -1261228.13977090 -26590.3483979719
 -7388.26649367705 -1261259.89048976 -26801.7364909192
 -2485.47325633137 -1261276.71050363 -26913.0615649203
 2485.48217018686 -1261276.71047531 -26913.0620685334
 7388.27500553063 -1261259.89042612 -26801.7371395829
 12081.5533872734 -1261228.13969334 -26590.3484818927
 16410.2195191793 -1261185.27845523 -26302.6428728109
 20201.1450193038 -1261137.01283796 -25976.5184156701
 23267.3932491131 -1261090.56595297 -25664.0564751897
 25425.3727494903 -1261053.73917423 -25425.3466878636
 26528.7344634109 -1261033.37736389 -25307.6735587409
 -8848.90966739837 -1261506.93508476 -8448.69514776590
 -8483.95121182487 -1261509.20580013 -8483.93613329375
 -7769.05810097649 -1261513.31053245 -8558.03742947726
 -6750.69842010725 -1261518.49621986 -8656.94432115747
 -5488.21607316520 -1261523.89886302 -8761.44969310280
 -4043.20679844441 -1261528.70880080 -8854.39264560636
 -2473.69835122007 -1261532.27907950 -8923.03624973302
 -832.366506721249 -1261534.17281036 -8959.29219489157
 832.377830587165 -1261534.17280384 -8959.29206106957
 2473.70884370309 -1261532.27905424 -8923.03691172974
 4043.21607486792 -1261528.70877266 -8854.39241847868
 5488.22396462724 -1261523.89883100 -8761.44936133074
 6750.70595826092 -1261518.49618073 -8656.94414530946
 7769.06600729456 -1261513.31049288 -8558.03608463672
 8483.95889323208 -1261509.20576793 -8483.93323979529
 8848.91745138216 -1261506.93506054 -8448.69061224931
 8848.92892009787 -1261506.93463678 8448.74187247180
 8483.97014237421 -1261509.20534704 8483.98457471499
 7769.07534590009 -1261513.31008232 8558.08812643322
 6750.71390516579 -1261518.49577954 8656.99641086161
 5488.23144511160 -1261523.89843143 8761.50220774160
 4043.22121981857 -1261528.70838516 8854.44527829226
 2473.71218917165 -1261532.27867636 8923.08940772191
 832.379562683494 -1261534.17242386 8959.34540399029
 -832.365553491744 -1261534.17243108 8959.34568810251
 -2473.69943101280 -1261532.27870028 8923.08956346345
 -4043.20985897444 -1261528.70841780 8854.44581605117
 -5488.22123450234 -1261523.89847620 8761.50215634322
 -6750.70426715882 -1261518.49583497 8656.99584939549
 -7769.06565981240 -1261513.31014044 8558.08835208589
 -8483.96079327760 -1261509.20539650 8483.98656925909
 -8848.91986640481 -1261506.93467783 8448.74522608829
 26528.7471684252 -1261033.37603070 25307.7266706572
 25425.3851915166 -1261053.73784815 25425.4000169616
 23267.4045965782 -1261090.56464832 25664.1102956633
 20201.1552865059 -1261137.01156154 25976.5724005718
 16410.2286694316 -1261185.27721553 26302.6966062575
 12081.5606415789 -1261228.13850382 26590.4016068383
 7388.28075056831 -1261259.88926615 26801.7901424760
 2485.48654443033 -1261276.70932420 26913.1156113475
 -2485.47076087051 -1261276.70934532 26913.1160789996
 -7388.26543779800 -1261259.88934527 26801.7906402760
 -12081.5464250686 -1261228.13862337 26590.4023954179
 -16410.2152959838 -1261185.27739156 26302.6965096187
 -20201.1426880475 -1261137.01178658 25976.5712723178
 -23267.3927682504 -1261090.56486857 25664.1101965944
 -25425.3745326192 -1261053.73803566 25425.4013755559
 -26528.7368485535 -1261033.37619659 25307.7292225629
 44126.5442321019 -1260093.86822182 42020.4983652054
 42256.9055176972 -1260150.04561699 42256.9211670227
 38614.0552104134 -1260251.69790020 42708.8234306652
 33467.6463065015 -1260379.37698705 43280.1760091278
 27142.4388254634 -1260511.29839417 43863.2597308074
 19955.9865357121 -1260627.81678639 44370.0018561717
 12192.3992953899 -1260713.77400859 44738.7566141772
 4099.69832666962 -1260759.19455502 44931.9122401457
 -4099.68127136800 -1260759.19460415 44931.9124176906
 -12192.3823314118 -1260713.77414241 44738.7574664728
 -19955.9700627274 -1260627.81699347 44370.0033817606
 -27142.4234289695 -1260511.29872258 43863.2598204697
 -33467.6316680297 -1260379.37740746 43280.1750858238
 -38614.0417842320 -1260251.69831444 42708.8233459718
 -42256.8939413574 -1260150.04597843 42256.9219648862
 -44126.5330851559 -1260093.86855678 42020.5000260500
 61491.5545941304 -1258713.49372269 58382.8772241903
 58799.8467519006 -1258822.69802198 58799.8629723033
 53596.3427060784 -1259020.05968955 59542.8607542353
 46321.9788328527 -1259265.88024439 60441.2776858111
 37470.1775130775 -1259517.32887384 61331.1909439680
 27492.8379716048 -1259737.47278908 62089.2456886926
 16773.8445916693 -1259898.83390803 62633.8356941272
 5636.29134266923 -1259983.77257714 62917.0563610816
 -5636.27231304260 -1259983.77266087 62917.0563888580
 -16773.8253909516 -1259898.83411530 62633.8366669201
 -27492.8192852532 -1259737.47309842 62089.2476867876
 -37470.1601948956 -1259517.32931957 61331.1923707602
 -46321.9627264562 -1259265.88086029 60441.2771975932
 -53596.3283191590 -1259020.06030351 59542.8607224353
 -58799.8338158920 -1258822.69858372 58799.8638822641
 -61491.5425167959 -1258713.49427746 58382.8779839528
 78316.6652108606 -1256955.73165464 74014.9953033382
 74700.0452218359 -1257135.32877125 74700.0623694492
 67819.2705728015 -1257457.52077424 75832.4528564701
 58371.4356919321 -1257852.37600053 77133.6930532071
 47048.4097748443 -1258249.82806634 78378.8761569875
 34427.3891066779 -1258593.41044248 79415.4455317582
 20967.4773793585 -1258843.07044026 80149.3594225834
 7039.27471967273 -1258973.83733645 80527.9854007221
 -7039.25341527045 -1258973.83743239 80527.9857630828
 -20967.4565657576 -1258843.07069770 80149.3608239853
 -34427.3690579979 -1258593.41081292 79415.4483522505
 -47048.3906463557 -1258249.82861087 78378.8788976197
 -58371.4179039317 -1257852.37679317 77133.6935885374
 -67819.2548529791 -1257457.52159239 75832.4533485390
 -74700.0313760634 -1257135.32953149 74700.0634211138
 -78316.6522339663 -1256955.73242764 74014.9959069681
 94039.8157174287 -1254957.31010716 88250.1772654285
 89309.8500116848 -1255227.83947550 89309.8685225067
 80600.5863801333 -1255701.18019318 90925.9174030652
 68987.5384147963 -1256264.27883411 92683.3975847065
 55361.6208981466 -1256817.82767643 94305.1954304592
 40384.2091126012 -1257288.58421708 95624.0689926166
 24546.9547795456 -1257627.14510183 96544.5070060322
 8233.17726097324 -1257803.48454047 97015.6687808204
 -8233.15444332409 -1257803.48466118 97015.6691522702
 -24546.9324675511 -1257627.14541360 96544.5086176822
 -40384.1880142926 -1257288.58464515 95624.0722746515
 -55361.6009643483 -1256817.82830132 94305.1988045304
 -68987.5201623401 -1256264.27968745 92683.3996040513
 -80600.5701235622 -1255701.18111375 90925.9191003824
 -89309.8356590071 -1255227.84042095 89309.8695871383
 -94039.8021696655 -1254957.31111245 88250.1774063955
 107654.874853966 -1252983.98826709 99954.9097614583
 101479.322958892 -1253376.76729044 101479.343451331
 90839.2729775167 -1254018.56405100 103610.320042663
 77254.5293664945 -1254745.56815779 105805.140705448
 61716.4224287953 -1255439.09020850 107764.580906677
 44885.4115276120 -1256018.50507089 109326.326520369
 27233.7135881262 -1256430.99721316 110403.374065687
 9126.57936421606 -1256644.72234940 110951.242712606
 -9126.55537749764 -1256644.72249386 110951.243049494
 -27233.6902001320 -1256430.99760154 110403.375415041
 -44885.3895377307 -1256018.50559322 109326.329547750
 -61716.4020900453 -1255439.09083658 107764.585237665
 -77254.5108021442 -1254745.56906763 105805.143470557
 -90839.2564056717 -1254018.56506397 103610.322311598
 -101479.307971339 -1253376.76849668 101479.343540613
 -107654.860772864 -1252983.98944379 99954.9101768618
 117157.671312427 -1251528.90685939 107232.953269670
 109166.484404893 -1252084.17593095 109166.505783318
 96916.0239794184 -1252871.15597071 111671.758970594
 81999.5929403916 -1253712.18402097 114154.532603508
 65298.7356617731 -1254493.52308187 116325.004128838
 47397.7444392640 -1255137.74778872 118034.396753154
 28725.3437368048 -1255593.24269955 119205.261768843
 9621.41260540196 -1255828.45898567 119798.751830307
 -9621.38867060417 -1255828.45911201 119798.752428265
 -28725.3203219633 -1255593.24315435 119205.262620787
 -47397.7224968639 -1255137.74831355 118034.399983441
 -65298.7146133775 -1254493.52380601 116325.008134810
 -81999.5741275624 -1253712.18497551 114154.535633837
 -96916.0070859740 -1252871.15715058 111671.760394644
 -109166.468899508 -1252084.17727481 109166.505875312
 -117157.656482188 -1251528.90817237 107232.954148582
 -119918.652844154 -1252229.27012608 -95345.7007866941
 -111671.727375408 -1252871.16184336 -96915.9844670645
 -99044.7829146708 -1253766.20553368 -99044.7563378687
 -83720.3604522724 -1254709.14030145 -101219.096067346
 -66615.4528317728 -1255575.80382351 -103156.256310123
 -48324.2838238903 -1256285.05759770 -104699.802142194
 -29275.1899400698 -1256784.10091695 -105764.445137800
 -9803.63669712820 -1257041.10313728 -106306.089429909
 9803.63544590745 -1257041.10313196 -106306.089608144
 29275.1894142499 -1256784.10089142 -105764.445586666
 48324.2841009218 -1256285.05775254 -104699.800156311
 66615.4535427284 -1255575.80409653 -103156.252527937
 83720.3599464966 -1254709.14075809 -101219.090825215
 99044.7798511696 -1253766.20626010 -99044.7502058140
 111671.722585857 -1252871.16274627 -96915.9783135385
 119918.647112330 -1252229.27109527 -95345.6952668067
 -109941.524436315 -1253573.49765988 -89530.8778486230
 -103610.288889300 -1254018.56943111 -90839.2342393092
 -92699.6696352548 -1254736.21859208 -92699.6435900495
 -78787.5181672591 -1255541.21995907 -94647.7833003828
 -62903.9111824543 -1256303.20680132 -96409.4469314211
 -45727.2507688527 -1256936.15931393 -97826.0745671833
 -27735.3964579121 -1257385.00271933 -98808.5706747904
 -9293.15513266939 -1257617.03748703 -99309.8948191377
 9293.15463585203 -1257617.03744996 -99309.8953350490