# OOMMF OVF 2.0
#
# Segment count: 1
#
# Begin: Segment
# Begin: Header
#
# Title: Oxs_MinDriver::Magnetization
# Desc: Oxs vector field output
# Desc:  MIF source file: C:/Users/grl31/Documents/GitHub/phd-work/Skyrmions/stdprob3/drive-37/stdprob3.mif
# Desc:  Iteration: 516, State id: 1102
# Desc:  Stage: 0, Stage iteration: 516
# Desc:  Stage simulation time: -1 s
# Desc:  Total simulation time: -2 s
# meshunit: m
# meshtype: rectangular
# xbase: 3.1249999999999999e-09
# ybase: 3.1249999999999999e-09
# zbase: 3.1249999999999999e-09
# xnodes: 16
# ynodes: 16
# znodes: 16
# xstepsize: 6.2499999999999997e-09
# ystepsize: 6.2499999999999997e-09
# zstepsize: 6.2499999999999997e-09
# xmin: 0
# ymin: 0
# zmin: 0
# xmax: 9.9999999999999995e-08
# ymax: 9.9999999999999995e-08
# zmax: 9.9999999999999995e-08
# valuedim: 3
# valuelabels: Magnetization_x Magnetization_y Magnetization_z
# valueunits: A/m A/m A/m
#
# End: Header
#
# Begin: Data Text
 501788.773081402 -1157412.67702860 -12383.5851793583
 608352.891796954 -1104434.57458313 -40993.4193087554
 744149.944658906 -1016104.53969779 -72951.0465219199
 878670.246725052 -899678.526488328 -100332.334842167
 997664.892654740 -762942.425395730 -118882.498352113
 1095574.39025466 -612683.227450140 -126037.491003127
 1170941.09981905 -453758.924290456 -120620.107363036
 1223564.06561674 -289625.058311153 -102750.833809935
 1253359.44026784 -123191.865393483 -73914.1983066126
 1260286.16892022 43083.0037331521 -37041.3031180750
 1244339.81153206 207735.745974704 3704.61868931520
 1205257.78088191 370161.556156822 43399.7106686973
 1142758.99581445 528929.699594135 76711.6763690576
 1058728.40960140 678974.852187914 98166.8768895885
 962592.815264737 808889.747867889 103256.373720389
 880724.560628941 898450.352838722 93062.5741524929
 447934.729548572 -1179212.50718233 19020.3019943907
 538873.816649894 -1140662.76249955 -7273.43763458278
 667283.057068932 -1069862.73408385 -40944.8761914546
 805208.425047578 -968304.967803016 -74661.3184946007
 936620.190245818 -838814.610794453 -103354.239683684
 1052025.47075843 -685363.108655272 -122756.869823428
 1145469.14930629 -512506.062332820 -129566.179918177
 1212693.16903427 -325674.247187456 -121905.674254526
 1250683.16143772 -131640.307481821 -100059.432644799
 1258231.64463092 62438.2767602124 -67112.0031256297
 1235970.33137110 251222.742878337 -28529.0089217771
 1185321.47853637 431829.944218633 9237.02957838992
 1108137.01718721 601656.575004008 39889.1941862786
 1008936.85065444 755145.979870904 57882.7383186587
 900400.963745090 881636.250860091 59540.3776880022
 812654.413389895 963791.547302786 47414.0133777043
 368500.177979414 -1205883.89473374 40013.5248369091
 442274.285531876 -1181389.74253925 16160.5538042828
 556736.045606388 -1131919.26209798 -18793.3640700475
 692805.030252830 -1052608.84601394 -59876.8592072552
 836627.401337696 -938678.052960438 -102408.667310386
 976015.712487959 -786892.616888286 -140508.965487192
 1098567.81330016 -597273.612851466 -167219.681530692
 1191417.12946554 -375730.952885076 -175786.534123422
 1243631.49428659 -135985.884520708 -162597.590844913
 1250513.47824729 103655.591047216 -130464.516576272
 1214861.03319626 328481.352866404 -88102.7908714033
 1143336.84524732 531257.304003791 -45781.7230068565
 1043526.16862257 708843.512331294 -11976.7000747123
 925369.658436827 857428.015373236 7591.08797066580
 805945.791098356 970511.383687010 10414.7426143404
 716359.275800397 1038450.19858510 62.8669235401701
 278744.131110043 -1229573.93803944 44710.9738749072
 336079.771300771 -1215766.13880599 22638.7714804546
 432291.687401533 -1185107.53986357 -13908.5182890669
 558445.494747315 -1129467.80753996 -63170.6581116086
 707317.381796794 -1037405.18073632 -122646.008123035
 868908.967946501 -895438.134751977 -186379.138245142
 1026288.86330833 -692260.348685440 -243014.834127785
 1154037.48729158 -428240.582741629 -276327.545021850
 1225264.76844967 -126276.797380891 -272635.009780780
 1227668.74098281 173230.136823863 -233174.211757246
 1170192.51302748 437845.500403452 -174614.521589246
 1071251.54759194 656170.935276433 -115798.343681054
 948054.389884917 829429.400934263 -69203.8554180366
 816211.395698143 961091.021023517 -40650.1876922779
 694138.460286639 1052971.66495182 -31175.3376634553
 608654.711852759 1104422.90708547 -36591.1869618809
 186422.596426627 -1247202.49345530 35804.8429600862
 227897.386407799 -1240723.18764564 14771.0468789960
 302843.032950501 -1224436.50702314 -24305.7314488118
 410750.956958135 -1189914.58227317 -83284.8675966793
 552792.588486382 -1122126.25660449 -163714.535922326
 726448.245791677 -997466.143730036 -262456.985461390
 916355.557877413 -786700.361274207 -364615.501641334
 1084278.26842348 -473751.633194647 -437549.377315227
 1177323.08124637 -91370.6476390110 -443972.068979047
 1169804.82653533 279240.608283502 -380960.341005555
 1084619.53703855 577728.035693491 -285272.164024069
 959680.794622338 795684.103000524 -193517.471005190
 822097.167609835 948913.334925893 -123568.445513648
 688923.763260988 1053841.88183033 -79691.7024135851
 574867.572202094 1121372.96703157 -59994.7844419974
 499171.359726698 1157111.05859704 -58918.4404069136
 93994.6195291350 -1257934.51542765 17753.7971807868
 119584.127349086 -1255882.72057590 -2767.59172831963
 170374.908611037 -1249191.90703463 -45181.8639933292
 251499.621422513 -1230857.13828337 -115273.919340655
 371195.329254311 -1185388.14080811 -220495.836900021
 536879.038392788 -1081791.58105908 -364742.791845264
 742746.640248412 -869077.416292548 -533461.623557794
 945109.520756852 -500597.236910434 -669118.697311132
 1059345.19209939 -18162.7844693519 -684841.082409038
 1041063.38037860 427148.814519182 -570333.550835386
 935315.695194884 741202.789155420 -409087.284805199
 800904.641484348 937199.562449725 -267877.147796943
 668265.259681700 1056881.86078494 -167247.439338436
 549851.032344297 1130542.87313396 -105290.479887199
 453889.869224135 1174721.03646220 -74591.5814809030
 392264.638270176 1197157.91800637 -67013.4601134615
 1221.12790503856 -1261555.67693215 -5021.33108406942
 10261.6444535319 -1261274.79389990 -25100.2757918719
 33622.9488705682 -1259132.38609535 -70742.9326082881
 78990.4470864785 -1249934.06027933 -151574.355158305
 157657.531231807 -1219505.80110625 -281955.909377761
 283992.607296662 -1132970.35482671 -476734.522563273
 466025.268223667 -918557.476189900 -728438.084693308
 671969.485591920 -488885.821288119 -949208.667836386
 801826.432105369 104056.783503705 -968398.672811457
 792765.756744204 608981.147095526 -769554.317988640
 701897.198021840 909751.516158380 -520808.921943137
 593241.168856566 1065145.73027091 -324158.787908498
 491701.630734551 1145554.01713225 -193610.255627365
 403966.085869901 1189528.98560933 -115678.972942989
 333942.350103711 1214203.82307910 -75769.4776692354
 289103.439677020 1226389.23405105 -62754.1129293674
 -92961.4724449771 -1257814.48263818 -28466.1698418193
 -101451.387631952 -1256581.54021138 -47538.1916620367
 -108642.321483244 -1253301.61348414 -94769.9453399651
 -106948.316358682 -1243698.27526226 -182554.344392752
 -87097.6731936511 -1214379.58151450 -330523.309683121
 -35761.3577081816 -1128321.72349008 -563170.173672386
 63821.2899702744 -899696.843148223 -882055.476880341
 212413.614881211 -411017.958135045 -1173666.95668854
 349011.968205437 264780.402774952 -1183060.19089252
 401000.477805107 786873.453937841 -900876.359556050
 386790.410938328 1050406.87786884 -581883.149653730
 347020.980439552 1162090.21066064 -347379.061459439
 300794.211680761 1208983.09460772 -198575.300808130
 255540.794165142 1230390.32742760 -111301.283051887
 216241.357598001 1241157.17780570 -65711.2331684118
 189510.464561412 1246293.78292054 -48857.1529489565
 -189510.570184276 -1246293.77054349 -48857.0589768346
 -216241.494940205 -1241157.15917580 -65711.1330873978
 -255540.980247066 -1230390.29855473 -111301.174997085
 -300794.474697409 -1208983.04925130 -198575.178543256
 -347021.346320647 -1162090.14896619 -347378.902342227
 -386790.923882232 -1050406.81676306 -581882.918995724
 -401001.179326566 -786873.452430639 -900876.048609099
 -349012.857148518 -264780.541188712 -1183059.89766867
 -212414.546964525 411017.750025026 -1173666.86087713
 -63822.0656984968 899696.724566343 -882055.541705580
 35760.7806483589 1128321.68758760 -563170.282246709
 87097.2602328746 1214379.58322867 -330523.412205924
 106948.024068938 1243698.28761679 -182554.431460213
 108642.116115944 1253301.62503505 -94770.0280115432
 101451.241355690 1256581.54898884 -47538.2718148646
 92961.3622042112 1257814.48909266 -28466.2446534279
 -289103.528912561 -1226389.21924294 -62753.9912193516
 -333942.467918976 -1214203.79842303 -75769.3535290967
 -403966.245906641 -1189528.94425699 -115678.839300479
 -491701.845127955 -1145553.95180178 -193610.097691318
 -593241.453279188 -1065145.63703481 -324158.573750335
 -701897.564228925 -909751.408835463 -520808.615875685
 -792766.217223240 -608981.101268683 -769553.879885022
 -801827.010595894 -104056.914234393 -968398.179778247
 -671970.156785937 488885.551667682 -949208.331547202
 -466025.915210210 918557.242166664 -728437.965879465
 -283993.144513288 1132970.21643259 -476734.531437684
 -157657.941849822 1219505.73502220 -281955.965602077
 -78990.7507134645 1249934.03237690 -151574.427020824
 -33623.1606454454 1259132.37648199 -70743.0030602676
 -10261.7972076271 1261274.79130583 -25100.3436922761
 -1221.24182032590 1261555.67658521 -5021.39054568116
 -392264.704658142 -1197157.90464897 -67013.3101323208
 -453889.962027334 -1174721.01043733 -74591.4266311359
 -549851.158946488 -1130542.82703852 -105290.313685100
 -668265.425247859 -1056881.78592385 -167247.250858313
 -800904.838782313 -937199.461187613 -267876.912188562
 -935315.913968850 -741202.687583121 -409086.968644965
 -1041063.61897726 -427148.788007294 -570333.135162980
 -1059345.48986189 18162.6408119985 -684840.625625376
 -945109.916734536 500596.948748758 -669118.353591071
 -742747.098329218 869077.128890138 -533461.453980093
 -536879.476231666 1081791.37474354 -364742.759284738
 -371195.698605298 1185388.01826923 -220495.873883432
 -251499.913894019 1230857.07243574 -115273.984338057
 -170375.122716858 1249191.87535202 -45181.9325912323
 -119584.283216441 1255882.70558448 -2767.65972917803
 -93994.7381416561 1257934.50743332 17753.7356387550
 -499171.406345139 -1157111.04801525 -58918.2532617086
 -574867.641391280 -1121372.94170568 -59994.5948443106
 -688923.860064106 -1053841.83330085 -79691.5073167857
 -822097.285283489 -948913.260844107 -123568.231526855
 -959680.919612330 -795684.010485327 -193517.231555674
 -1084619.65258803 -577727.958503808 -285271.881021956
 -1169804.93330054 -279240.611055185 -380960.011132658
 -1177323.22092994 91370.5017268382 -443971.728595747
 -1084278.49029114 473751.369404163 -437549.113127430
 -916355.860551109 786700.073396172 -364615.362088665
 -726448.581081409 997465.908570015 -262456.951145048
 -552792.908369198 1122126.09393929 -163714.570751111
 -410751.227699035 1189914.48388555 -83284.9380264339
 -302843.243566701 1224436.45320042 -24305.8186230275
 -227897.541332165 1240723.16019513 14770.9623627791
 -186422.717444848 1247202.47765649 35804.7631879252
 -608654.743492731 -1104422.89746824 -36590.9509389510
 -694138.508407527 -1052971.64023169 -31175.1011628655
 -816211.464501907 -961090.972497494 -40649.9534861840
 -948054.469266384 -829429.329809959 -69203.6203821058
 -1071251.61969426 -656170.858942864 -115798.109205475
 -1170192.56922912 -437845.448752275 -174614.274464703
 -1227668.78619621 -173230.155887062 -233173.959544844
 -1225264.83472345 126276.664358938 -272634.773547774
 -1154037.61477168 428240.353377539 -276327.368080208
 -1026289.06303599 692260.085433244 -243014.740556233
 -868909.218029100 895437.895654128 -186379.121066495
 -707317.645340647 1037404.99596056 -122646.051158590
 -558445.733779321 1129467.68468245 -63170.7416507465
 -432291.893040434 1185107.46354031 -13908.6301097989
 -336079.929823957 1215766.09711450 22638.6571036073
 -278744.253274421 1229573.91437852 44710.8629454687
 -716359.292413651 -1038450.18710586 63.1773332907365
 -805945.822256714 -970511.354659315 10415.0364014534
 -925369.700130187 -857427.967962448 7591.36059676198
 -1043526.21681232 -708843.445710673 -11976.4442691826
 -1143336.88398813 -531257.241249458 -45781.4837165790
 -1214861.05724771 -328481.322664763 -88102.5718259156
 -1250513.49652617 -103655.618853344 -130464.319279147
 -1243631.52848353 135985.774338459 -162597.421437869
 -1191417.20599524 375730.766133509 -175786.414600700
 -1098567.94635710 597273.384049900 -167219.624629607
 -976015.891132357 786892.395199667 -140508.966094677
 -836627.606413351 938677.863892099 -102408.724945614
 -692805.238729650 1052608.70282218 -59876.9642743655
 -556736.238638757 1131919.16492439 -18793.4984021167
 -442274.450794028 1181389.68270462 16160.4050958780
 -368500.308892133 1205883.85973629 40013.3739251253
 -812654.411042121 -963791.530399829 47414.3972047763
 -900400.974721903 -881636.215409999 59540.7366122931
 -1008936.86715280 -755145.933697471 57883.0531245829
 -1108137.03589352 -601656.522437698 39889.4673849578
 -1185321.49404168 -431829.896448224 9237.27315179464
 -1235970.34023328 -251222.722179493 -28528.8072534960
 -1258231.65229658 -62438.3052326014 -67111.8329183519
 -1250683.18168784 131640.217388293 -100059.298059227
 -1212693.21887698 325674.094574108 -121905.586139723
 -1145469.23894281 512505.872207249 -129566.139511107
 -1052025.59717150 685362.911914639 -122756.884885518
 -936620.344962025 838814.429410942 -103354.309702916
 -805208.600389633 968304.812769790 -74661.4381349844
 -667283.232669561 1069862.61871524 -40945.0289141823
 -538873.982937153 1140662.68275756 -7273.62335610092
 -447934.869969807 1179212.45689042 19020.1130000859
 -880724.538164311 -898450.328817839 93063.0186558024
 -962592.802399141 -808889.712306824 103256.772235553
 -1058728.40334519 -678974.811941818 98167.2227256494
 -1142758.99439524 -528929.659941582 76711.9709159586
 -1205257.78199098 -370161.523686785 43399.9568088096
 -1244339.81252636 -207735.736472113 3704.81756642073
 -1260286.17259822 -43083.0309236849 -37041.1463524270
 -1253359.45467638 123191.790544552 -73914.0787313724
 -1223564.10190900 289624.931780854 -102750.758291677
 -1170941.16618078 453758.762105528 -120620.073265630
 -1095574.48584641 612683.053427800 -126037.506019915
 -997665.014677286 762942.253839058 -118882.575320791
 -878670.393023412 899678.369288515 -100332.463227988
 -744150.106321322 1016104.40913744 -72951.2159760148
 -608353.055664196 1104434.47693323 -40993.6183353180
 -501788.929234623 1157412.60711169 -12383.7924496335
 513278.086919065 -1152334.68018421 14826.3701700820
 626627.363557543 -1094893.44451031 -9794.04554985449
 767584.753992530 -1000259.89161501 -42932.8031173419
 903155.093813279 -877676.450590414 -74460.4292029845
 1019606.61894070 -736404.658889513 -98285.0542914915
 1112728.35299459 -584020.171847959 -110930.078137432
 1182443.08786948 -425553.579352379 -110823.851083666
 1229703.28878667 -264194.967242656 -97878.8626306257
 1255272.11770746 -102263.311616807 -73372.7232855780
 1259570.09037397 58610.7511887034 -39967.4642599113
 1242606.87173672 217888.276766088 -1513.96153561574
 1203692.22926143 375867.553835780 37390.2408137017
 1141686.23367764 531927.617920654 71798.2175487890
 1057192.18266117 681550.046565789 96869.2617151308
 958336.212972463 813139.847995589 109291.909244287
 872234.306191813 904687.876426829 110890.000754604
 457491.870726747 -1175274.24889916 31321.8615730463
 553684.298348800 -1133542.49610401 8033.56752914981
 687241.212972058 -1057614.11794224 -26482.5157584252
 827394.036573275 -950237.249002611 -63385.4066002959
 957786.318499931 -815447.119249762 -96129.0524272817
 1069532.90212994 -658287.699724933 -119608.137563077
 1157720.02858123 -484056.715300893 -130087.903791827
 1219325.54490435 -298428.053581645 -125440.596690750
 1252498.72119557 -107788.707004769 -105725.961639834
 1256758.95354567 81641.5184851297 -73763.3110779893
 1232792.52665638 265638.897497095 -34756.1976583305
 1181491.13413035 442270.174390044 5022.32369857300
 1103798.70912096 609610.697805575 39403.5250055910
 1003111.78318672 762450.502453197 63130.1248198901
 891238.654295938 889869.151505149 73321.1102427305
 799728.955534012 972972.483496239 72853.1053462566
 376257.818891736 -1203360.77217302 43615.7842637025
 454184.081979104 -1176776.06061602 21548.8690372521
 573595.393758845 -1123528.32243590 -14895.0952313715
 713021.621624882 -1039038.21702980 -59575.0078969386
 857605.101140944 -919077.750337134 -106578.657578417
 994723.413727511 -761479.031568834 -149078.655689644
 1112231.77428039 -567725.769622387 -179380.494220273
 1198471.20861049 -345008.572973244 -190224.282428999
 1244373.36792175 -107253.988282017 -177710.253287842
 1246676.06909917 128387.791746125 -144446.476540423
 1208348.85395722 348755.705788243 -99055.2156091077
 1135306.36933889 547655.160231759 -51987.5382090212
 1034165.43132210 722430.201436814 -12078.7263109239
 914013.899742299 869430.924093746 14761.1051864005
 791513.403592721 982016.496325769 26449.2683468107
 699237.088271189 1049711.95597570 26865.1221223058
 286054.540272275 -1227899.65226058 44549.6900878578
 347000.977973492 -1212687.97120790 22970.3437517144
 447938.756984173 -1179252.00789137 -16278.9064315740
 578119.449163166 -1119083.85341150 -70559.6375550208
 729040.135888928 -1020519.12857833 -136347.421639505
 889291.053052219 -870672.873011030 -206493.588479030
 1041011.04663983 -660229.866221626 -268219.975844019
 1159751.81692336 -392461.997402433 -304136.046296400
 1221902.14244489 -91659.8269259155 -300171.719746317
 1218105.79678432 203569.086563201 -257540.920545115
 1157437.09086118 463252.598382702 -193095.421254483
 1056942.63985479 677059.071652422 -126541.299459543
 932691.655600222 846477.467457292 -71495.4794358383
 799615.128127548 975180.855466016 -34458.3360173892
 675776.672823907 1065181.96465462 -16208.0708454758
 588908.084021217 1115613.03259176 -12010.8702778868
 194605.904226883 -1245979.85986900 34816.1135081908
 239415.438628586 -1238572.29260738 12975.1551255358
 318932.898534714 -1220213.75266461 -30160.1551612707
 431229.209736362 -1181685.92776987 -95964.4085053398
 576017.550039053 -1106994.25968564 -185248.271217331
 748389.858405231 -972310.733625735 -293383.516972812
 930375.947540814 -750735.983487987 -402921.220901568
 1084280.83379447 -431809.124874517 -478983.699158985
 1163705.85683048 -51762.7677667023 -484415.860155837
 1149017.41325770 312534.098808847 -416690.355097509
 1061992.42946401 605105.726105298 -312359.681960802
 937338.207942476 817890.301270522 -209766.465236357
 800582.385061040 966413.377845017 -129083.146735412
 668130.317233097 1067434.88313123 -75723.7108676669
 554202.443535693 1132321.82847291 -47501.1501101367
 478409.450588480 1166717.12336718 -38012.9260698567
 103986.966226296 -1257148.27903617 17729.8136028790
 132728.852547961 -1254555.35005695 -4832.83185611884
 188037.908840455 -1246367.34736563 -52532.0014716729
 273869.856881574 -1224481.74569440 -131107.539340070
 396772.215287880 -1171682.14615818 -247552.395400766
 560626.372847733 -1055583.66353593 -403720.980706492
 754470.458206703 -827838.280356587 -580523.505285161
 934069.705956851 -452606.409797705 -717084.829809324
 1027929.30312399 21305.4257245088 -731065.563087665
 1003614.84113240 455879.330915097 -613580.245136808
 900472.931378852 764314.835118148 -443306.624799641
 770310.133334338 956316.764451212 -289188.477348170
 641587.223418970 1071870.66021464 -176092.457065971
 526348.408842657 1141795.86590585 -103966.263893993
 432413.590679214 1183356.82494234 -65073.3615025164
 371797.550204211 1204488.43134773 -50235.7574898691
 13553.3382397812 -1261490.13488492 -2894.39622899099
 25577.7667403499 -1261035.99843060 -26142.2919740752
 53489.5174067635 -1258014.57173118 -78023.3282971931
 104052.625148871 -1245925.77103179 -168497.641518838
 186824.419456219 -1208133.12785396 -311545.201528784
 311865.813086391 -1106901.41517011 -518708.398468083
 479198.361976760 -873323.157935727 -774096.261850497
 653330.578993485 -439630.917240258 -985613.130024900
 754761.463443301 130648.360272103 -1002404.89333307
 741147.049010327 620151.245910711 -810964.188394057
 657542.311225928 920461.219925986 -558514.711067653
 556898.969393664 1076781.03034321 -349221.393245389
 462007.324399166 1155805.21501322 -205457.947202619
 379440.796665311 1197444.23872021 -117053.013206494
 312897.710407796 1220179.44920900 -69329.3982993033
 269909.968466123 1231334.78841116 -50126.6265572739
 -78112.6482885696 -1258929.05043204 -23355.7503536969
 -83835.4658040387 -1257913.74657198 -46626.7281462306
 -86469.0191334009 -1254558.93704633 -100769.107995718
 -78970.7853399343 -1243299.56072035 -198794.487585403
 -53311.7983687343 -1207973.26841460 -359872.013178847
 461.952236137906 -1107797.24568682 -603601.259083999
 91231.4263082262 -860187.569328440 -918315.633834876
 211101.496812558 -375676.408750999 -1185686.64699844
 313516.275338157 261466.145949939 -1193688.58189191
 353033.511642206 769849.708583016 -935012.404608180
 342185.981231839 1043760.97335753 -620500.778132545
 309793.097928224 1164030.89369505 -374979.660673077
 270831.992877496 1213610.61206536 -212952.447356905
 231597.677527141 1234762.89912157 -115206.465252098
 196591.463161410 1244600.46920911 -62216.5538701576
 172279.955772963 1249101.54411846 -40179.3508993938
 -172280.060284930 -1249101.53335066 -40179.2375265601
 -196591.596611570 -1244600.45394678 -62216.4375075419
 -231597.865010214 -1234762.87522271 -115206.344501589
 -270832.251650218 -1213610.57852886 -212952.309374370
 -309793.454871114 -1164030.85573928 -374979.483605231
 -342186.469435123 -1043760.95541439 -620500.539086734
 -353034.163054826 -769849.765715327 -935012.111613100
 -313517.079676496 -261466.339077640 -1193688.32833341
 -211102.327692794 375676.169673130 -1185686.57481704
 -91232.1343673192 860187.411137577 -918315.711669015
 -462.490711298800 1107797.17915313 -603601.380781783
 53311.4070154476 1207973.25082779 -359872.130187277
 78970.5015723802 1243299.56151442 -198794.595345064
 86468.8181949104 1254558.94273787 -100769.209560076
 83835.3180951836 1257913.75301944 -46626.8197864001
 78112.5405928296 1258929.05550673 -23355.8370010435
 -269910.060521250 -1231334.77383073 -50126.4890411890
 -312897.827217346 -1220179.42723949 -69329.2577713138
 -379440.955749744 -1197444.20332633 -117052.859592793
 -462007.539063398 -1155805.16052636 -205457.771009439
 -556899.254057165 -1076780.95517502 -349221.171067710
 -657542.675062260 -920461.151185931 -558514.396008189
 -741147.504443762 -620151.245206629 -810963.772707762
 -754762.019941319 -130648.521472922 -1002404.45330714
 -653331.206080473 439630.641783431 -985612.837216255
 -479198.960552059 873322.914287083 -774096.166187312
 -311866.312040711 1106901.26224111 -518708.424822762
 -186824.807483200 1208133.04830641 -311545.277315642
 -104052.909788412 1245925.73533784 -168497.729677256
 -53489.7258870799 1258014.55762382 -78023.4128323956
 -25577.9154330221 1261035.99369576 -26142.3748882242
 -13553.4522099513 1261490.13348412 -2894.47307081116
 -371797.620569838 -1204488.41672715 -50235.5872632694
 -432413.682249011 -1183356.80086980 -65073.1907777984
 -526348.536945743 -1141795.82341363 -103966.082013434
 -641587.392532629 -1071870.59288660 -176092.250729715
 -770310.335102109 -956316.676870547 -289188.229520330
 -900473.159109003 -764314.754943934 -443306.300449473
 -1003615.09456560 -455879.325073069 -613579.834944046
 -1027929.60754864 -21305.5774701844 -731065.130622783
 -934070.088750620 452606.133855982 -717084.505352265
 -754470.884811329 827837.998662303 -580523.352555051
 -560626.784777177 1055583.45281451 -403720.959641119
 -396772.564692784 1171682.01664063 -247552.448396300
 -273870.136701506 1224481.67400211 -131107.624397109
 -188038.117917391 1246367.31202865 -52532.0914824415
 -132729.005866332 1254555.33351030 -4832.91646540835
 -103987.084253662 1257148.27037891 17729.7352119957
 -478409.500817685 -1166717.10963032 -38012.7155331164
 -554202.514108571 -1132321.80262760 -47500.9428208295
 -668130.415675013 -1067434.83704041 -75723.4920048596
 -800582.509507031 -966413.305517032 -129082.916414305
 -937338.340645544 -817890.214605811 -209766.210164726
 -1061992.55571120 -605105.658032964 -312359.384602786
 -1149017.53592578 -312534.103333742 -416690.013448093
 -1163706.00436987 51762.6284775998 -484415.520607617
 -1084281.04747283 431808.872766962 -478983.442730445
 -930376.233344631 750735.703652298 -402921.082357450
 -748390.171949025 972310.498940572 -293383.494932823
 -576017.849002741 1106994.09657854 -185248.316293209
 -431229.465044787 1181685.82752274 -95964.4956639861
 -318933.099083839 1220213.69759891 -30160.2622622744
 -239415.590097276 1238572.26442575 12975.0503885585
 -194606.024936176 1245979.84382801 34816.0128650670
 -588908.118640438 -1115613.01718783 -12010.6036236534
 -675776.724568250 -1065181.93582966 -16207.8077770290
 -799615.199291066 -975180.806142809 -34458.0805084263
 -932691.739080176 -846477.396741488 -71495.2276470497
 -1056942.71807574 -677058.997332823 -126541.043761683
 -1157437.15534035 -463252.545782559 -193095.160950681
 -1218105.84889131 -203569.106571461 -257540.658276380
 -1221902.21169122 91659.7054843404 -300171.474949863
 -1159751.93639311 392461.784022231 -304135.866075477
 -1041011.23166633 660229.613568977 -268219.879632492
 -889291.283066137 870672.640671430 -206493.577546072
 -729040.380239290 1020518.94700970 -136347.474100953
 -578119.675178498 1119083.73016118 -70559.7404969771
 -447938.948791531 1179251.93316987 -16279.0414220443
 -347001.129445300 1212687.93044522 22970.2075551014
 -286054.661392817 1227899.62905853 44549.5518757008
 -699237.105479275 -1049711.93595044 26865.4566889034
 -791513.434434926 -982016.462725270 26449.5928991376
 -914013.942239753 -869430.874326279 14761.4050327316
 -1034165.47877032 -722430.138204445 -12078.4457860383
 -1135306.41020087 -547655.099631924 -51987.2842426285
 -1208348.88269915 -348755.671995073 -99054.9839732327
 -1246676.09126101 -128387.813599478 -144446.265844012
 -1244373.40133756 107253.890043107 -177710.078592012
 -1198471.27911308 345008.396216186 -190224.158824120
 -1112231.89479616 567725.552406360 -179380.434445854
 -994723.577103102 761478.815214650 -149078.670685838
 -857605.291351949 919077.564697006 -106578.727871528
 -713021.815842971 1039038.07658996 -59575.1327919683
 -573595.575149848 1123528.22770319 -14895.2556744758
 -454184.236733500 1176776.00422777 21548.6866301826
 -376257.943997011 1203360.73970807 43615.6007335544
 -799728.950117360 -972972.456533747 72853.5248963515
 -891238.658818994 -889869.115155961 73321.4964183125
 -1003111.79551979 -762450.457572904 63130.4708907540
 -1103798.72872954 -609610.642754880 39403.8274028373
 -1181491.15048293 -442270.127734086 5022.58534423185
 -1232792.53764111 -265638.874920796 -34755.9805812078
 -1256758.96260929 -81641.5396028182 -73763.1332811193
 -1252498.73960609 107788.627400272 -105725.824694204
 -1219325.58790210 298427.914315470 -125440.510057412
 -1157720.10803868 484056.534465275 -130087.869547224
 -1069533.01668227 658287.509369948 -119608.160896286
 -957786.459042280 815446.943657358 -96129.1416485095
 -827394.199660499 950237.097075329 -63385.5553653036
 -687241.377486004 1057614.00636285 -26482.7025663503
 -553684.452887312 1133542.42215232 8033.35116106985
 -457492.010448405 1175274.20057682 31321.6339507667
 -872234.283136888 -904687.839849721 110890.480509727
 -958336.199183985 -813139.805774666 109292.344275725
 -1057192.17635451 -681550.003361093 96869.6345211492
 -1141686.23249968 -531927.577263114 71798.5374964440
 -1203692.23237622 -375867.517760446 37390.5031888818
 -1242606.87467566 -217888.261454371 -1513.75299758754
 -1259570.09459317 -58610.7704636597 -39967.3030260257
 -1255272.13020126 102263.245191050 -73372.6021205341
 -1229703.31997745 264194.849735482 -97878.7879401578
 -1182443.14552316 425553.425952068 -110823.824986816
 -1112728.43855601 584020.003673378 -110930.105278040
 -1019606.73072807 736404.490947569 -98285.1529236001
 -903155.230541208 877676.296621877 -74460.5856350649
 -767584.907111219 1000259.76526814 -42933.0092090052
 -626627.520706105 1094893.35240555 -9794.28766205796
 -513278.236183028 1152334.61700094 14826.1134859333
 535325.242965057 -1141295.25316644 49208.3353011030
 652531.441122151 -1079385.32728203 26066.5401282632
 796842.338872495 -978013.899453122 -8973.87183240567
 932365.399330772 -848629.277236288 -45525.1893696278
 1045261.42089429 -702287.833049711 -75959.1499382445
 1132555.68153775 -547472.394224357 -95608.7689376037
 1195626.50963266 -389331.510459652 -102213.772779275
 1236636.66483933 -230653.075953295 -95280.3686354196
 1257171.07931293 -73018.4493626348 -75753.6422279352
 1258003.82001523 82865.0427529170 -45926.0757697810
 1238997.44130578 237380.663223021 -9229.95582273764
 1198869.77078877 391599.274850419 30177.9976881145
 1135547.38421904 545419.565515955 67816.4188426049
 1048581.30343136 694382.638308177 99294.6757350100
 945667.041193759 826174.603681809 121238.617403871
 855611.991715092 917536.662229174 132680.156834525
 477302.779154134 -1166604.87515868 52579.0185025333
 577514.889408998 -1121210.92791567 30199.9760321203
 715503.406356886 -1039021.78767054 -6166.94061601095
 857308.396793938 -924285.320099959 -47627.6259462781
 985590.435971241 -782758.921553991 -86309.8729497691
 1092030.43404616 -620951.058529089 -115925.600915018
 1173063.55998384 -445031.844982449 -131977.165102588
 1227249.75222589 -260792.843130082 -131888.473918574
 1254099.51920437 -73948.7908506540 -115392.387886069
 1253843.01176352 110503.487157017 -84947.7021282889
 1227043.19244731 289578.934065003 -45370.4279618682