# ODT 1.0
# Table Start
# Title: mmArchive Data Table, Mon Feb 01 17:02:59 GMT 2021
# Columns: {Oxs_CGEvolve:evolver:Max mxHxm} {Oxs_CGEvolve:evolver:Total energy} {Oxs_CGEvolve:evolver:Delta E} {Oxs_CGEvolve:evolver:Bracket count} {Oxs_CGEvolve:evolver:Line min count} {Oxs_CGEvolve:evolver:Conjugate cycle count} {Oxs_CGEvolve:evolver:Cycle count} {Oxs_CGEvolve:evolver:Cycle sub count} {Oxs_CGEvolve:evolver:Energy calc count} Oxs_UniformExchange:exchange:Energy {Oxs_UniformExchange:exchange:Max Spin Ang} {Oxs_UniformExchange:exchange:Stage Max Spin Ang} {Oxs_UniformExchange:exchange:Run Max Spin Ang} Oxs_UniaxialAnisotropy:uniaxialanisotropy:Energy Oxs_Demag:demag:Energy Oxs_MinDriver::Iteration {Oxs_MinDriver::Stage iteration} Oxs_MinDriver::Stage Oxs_MinDriver::mx    Oxs_MinDriver::my    Oxs_MinDriver::mz   
# Units:                 A/m                                 J                                J                                 {}                                   {}                                        {}                                      {}                                   {}                                      {}                                     J                                      deg                                            deg                                              deg                                              J                                   J                       {}                           {}                         {}                 {}                   {}                   {}           
                  0.088786754801299994               2.3497632654700001e-16               0                                 446                                  308                                       105                                     416                                  282                                     755                                   1.3512547910800001e-16                     30.566285839199999                             179.98943737900001                               179.98943737900001                               4.7731373825000002e-17                 5.2119473614299998e-17     740                          740                        0                    4.5057814732100003e-18  5.217667881e-08     -0.18922792960900001
# Table End
