# ODT 1.0
# Table Start
# Title: mmArchive Data Table, Tue Apr 27 15:14:23 BST 2021
# Columns: {Oxs_CGEvolve:evolver:Max mxHxm} {Oxs_CGEvolve:evolver:Total energy} {Oxs_CGEvolve:evolver:Delta E} {Oxs_CGEvolve:evolver:Bracket count} {Oxs_CGEvolve:evolver:Line min count} {Oxs_CGEvolve:evolver:Conjugate cycle count} {Oxs_CGEvolve:evolver:Cycle count} {Oxs_CGEvolve:evolver:Cycle sub count} {Oxs_CGEvolve:evolver:Energy calc count} Oxs_UniformExchange:exchange:Energy {Oxs_UniformExchange:exchange:Max Spin Ang} {Oxs_UniformExchange:exchange:Stage Max Spin Ang} {Oxs_UniformExchange:exchange:Run Max Spin Ang} Oxs_UniaxialAnisotropy:uniaxialanisotropy:Energy Oxs_Demag:demag:Energy Oxs_MinDriver::Iteration {Oxs_MinDriver::Stage iteration} Oxs_MinDriver::Stage Oxs_MinDriver::mx    Oxs_MinDriver::my    Oxs_MinDriver::mz   
# Units:                 A/m                                 J                                J                                 {}                                   {}                                        {}                                      {}                                   {}                                      {}                                     J                                      deg                                            deg                                              deg                                              J                                   J                       {}                           {}                         {}                 {}                   {}                   {}           
                  0.098160808106400002               3.2224856272599999e-16               0                                 939                                  763                                       101                                     885                                  342                                     1703                                  1.78106421222e-16                       17.604793914399998                             179.11025042700001                               179.11025042700001                               5.4039403155e-17                    9.01027383491e-17       1659                         1659                       0                    0.40643999394399999  3.57424336873e-09    1.17752039482e-07  
# Table End
