# OOMMF OVF 2.0
#
# Segment count: 1
#
# Begin: Segment
# Begin: Header
#
# Title: Oxs_MinDriver::Magnetization
# Desc: Oxs vector field output
# Desc:  MIF source file: C:/Users/grl31/Documents/GitHub/phd-work/multi-axis-tomo/stdprob3/drive-5/stdprob3.mif
# Desc:  Iteration: 1659, State id: 3442
# Desc:  Stage: 0, Stage iteration: 1659
# Desc:  Stage simulation time: -1 s
# Desc:  Total simulation time: -2 s
# meshunit: m
# meshtype: rectangular
# xbase: 2.5000000000000001e-09
# ybase: 2.5000000000000001e-09
# zbase: 2.5000000000000001e-09
# xnodes: 20
# ynodes: 20
# znodes: 20
# xstepsize: 5.0000000000000001e-09
# ystepsize: 5.0000000000000001e-09
# zstepsize: 5.0000000000000001e-09
# xmin: 0
# ymin: 0
# zmin: 0
# xmax: 9.9999999999999995e-08
# ymax: 9.9999999999999995e-08
# zmax: 9.9999999999999995e-08
# valuedim: 3
# valuelabels: Magnetization_x Magnetization_y Magnetization_z
# valueunits: A/m A/m A/m
#
# End: Header
#
# Begin: Data Text
 299306.001412905 969755.867951938 -749358.996082622
 305406.704681166 959513.675807701 -760006.369442216
 312630.425778996 942337.749704919 -778338.752264891
 320225.305955303 919764.456238516 -801896.832133070
 327815.480544901 892985.756349545 -828651.241832715
 335031.613095481 863034.948051360 -857014.543393273
 341482.635484813 830800.408707803 -885838.428536631
 346794.010935921 797007.106896969 -914364.815844121
 350655.093217119 762204.652486532 -942143.568808774
 352858.493290529 726776.289070730 -968935.777168059
 353326.713625184 690972.861219746 -994618.605001726
 352125.395731295 654970.519857269 -1019102.91664676
 349463.237175446 618948.422201148 -1042270.46750665
 345677.935515831 583181.448527696 -1063934.01764847
 341206.598955603 548141.797478882 -1083821.04500915
 336538.497749834 514601.793079425 -1101578.98718643
 332148.402960477 483727.570540246 -1116796.53779415
 328409.573919996 457148.749011320 -1129031.26792575
 325486.210906513 436978.110982564 -1137830.51811365
 323249.284541738 425714.393728386 -1142727.69544397
 282765.541051522 1001680.32990210 -712902.234812050
 292534.633255706 992320.679743373 -721992.096783997
 303126.180011704 976234.708773808 -739344.130493902
 313405.282909766 955107.065264481 -762297.221197266
 323174.446912704 930102.350919684 -788680.749476807
 332220.263105221 902178.932294708 -816855.129031356
 340246.336755886 872146.005619897 -845661.401581279
 346933.201864172 840656.029618384 -874347.885128958
 352002.433906033 808194.221681797 -902477.599435763
 355264.984984495 775085.327824762 -929827.379653719
 356652.475197404 741523.621018574 -956290.312784785
 356233.672452732 707626.194330648 -981790.288517318
 354218.116524873 673506.992636004 -1006214.33487848
 350947.740517066 639367.674921622 -1029365.86819762
 346876.311470420 605599.984995514 -1050940.01428867
 342536.419427088 572891.941698437 -1070519.99300434
 338495.282719828 542326.031974821 -1087590.38683588
 335302.411366136 515450.528063127 -1101559.11188209
 333415.921977905 494295.460053024 -1111780.21751673
 332932.296939236 481366.030541723 -1117583.22339512
 269520.400662389 1046915.41760818 -650289.391671152
 281102.229928842 1038838.16815602 -658290.382453079
 294608.230089662 1024508.84356062 -674638.459582960
 307938.744626558 1005527.60824685 -696876.882619979
 320542.003652688 983043.543544701 -722791.564912286
 332117.848118930 957966.094338269 -750698.426785409
 342366.710895193 931035.725533441 -779427.317952213
 350987.226357341 902831.158928809 -808240.865287197
 357721.212395612 873764.821350261 -836731.738427505
 362395.975948697 844089.324331076 -864714.866349280
 364953.999544524 813923.466427753 -892124.767021766
 365470.438100154 783299.732381189 -918924.544805172
 364160.673437473 752232.431165478 -945030.583813770
 361379.536285470 720804.203838976 -970255.410395176
 357612.602880521 689267.080873933 -994270.359813416
 353459.038595000 658151.456806214 -1016588.80520017
 349603.555388605 628372.213704527 -1036568.92970158
 346764.638619381 601319.140076267 -1053432.01399049
 345546.871761437 578946.532138467 -1066286.87662359
 345860.798284492 564144.745609537 -1074090.51998894
 264557.791925870 1095634.06621846 -566696.213673482
 276654.182064585 1088598.56926637 -574425.843304730
 291839.961394382 1076053.67439304 -590328.177946394
 307482.852423605 1059389.45670982 -612125.563423444
 322563.987816351 1039662.39375854 -637655.088341042
 336523.005825413 1017715.85937225 -665248.921120048
 348937.214092264 994226.713848397 -693761.841708450
 359454.797886883 969710.356474749 -722498.099472011
 367802.079274857 944516.380638940 -751105.763594423
 373805.558405378 918832.869518020 -779464.555523520
 377411.380925095 892707.328089435 -807578.916789305
 378699.141487927 866086.944335192 -835481.774790684
 377890.938345043 838878.578065469 -863151.551524131
 375356.710587755 811028.049808980 -890443.863002456
 371615.476463956 782617.322196618 -917039.527811760
 367329.160792651 753976.455313894 -942410.856995300
 363279.174469914 725805.974631345 -965807.102637403
 360295.728230985 699313.606528687 -986253.972798741
 359040.640534057 676430.920332958 -1002537.01147706
 359330.389545643 660524.785023221 -1012984.75330972
 268601.288970479 1141105.46130686 -466134.213138236
 280452.889358123 1134834.84215191 -474389.596015426
 296236.161211539 1123877.90170764 -490603.740062012
 313186.121558540 1109431.45346645 -512470.227663417
 329934.539526898 1092418.52397874 -537879.539501407
 345638.853314424 1073593.80095812 -565225.233462499
 359699.710723178 1053568.61174470 -593429.633040818
 371669.153895619 1032804.91790989 -621872.553263615
 381227.292537873 1011604.87724000 -650285.133374154
 388181.426084221 990109.718630451 -678636.394865249
 392471.167908358 968313.915030993 -707024.734529814
 394175.095680953 946096.782702226 -735578.889463504
 393518.541178400 923272.490413979 -764369.346005284
 390882.461303764 899659.642769775 -793330.233594703
 386811.449484899 875172.024735970 -822192.350113943
 382014.566175715 849932.392427907 -850428.850904240
 377343.309555613 824413.577048013 -877213.606615556
 373708.896989208 799626.326592917 -901381.622316309
 371841.580771355 777445.111703165 -921337.271588026
 371639.630456206 761509.721153103 -934631.671078319
 280512.154686904 1178608.79812101 -351772.174828555
 291653.550466962 1173022.55305968 -361255.764566212
 307219.885785018 1163557.99035555 -378547.455118851
 324541.243297048 1151236.24740917 -401095.393852148
 342045.855230005 1136838.61649783 -426792.717695872
 358665.357317957 1121024.93201504 -454105.377836036
 373631.635896362 1104344.82899810 -482049.095260550
 386390.802098354 1087219.33930238 -510103.604397820
 396563.884982846 1069921.63270271 -538102.421404168
 403928.092030640 1052568.64291632 -566119.050497973
 408408.418099065 1035127.57560276 -594359.232427264
 410076.361559730 1017438.28788190 -623061.906202619
 409154.948045097 999252.462116488 -652407.983062213
 406029.127593185 980291.886387398 -682435.048885905
 401258.403630009 960330.066550758 -712956.722188568
 395583.395528926 939303.725588514 -743486.193009861
 389908.147048945 917465.590318011 -773161.017102024
 385219.418551518 895606.749972362 -800652.221562975
 382355.267646782 875444.275603612 -823984.951643280
 381414.655786594 860583.444912089 -839921.678261366
 298179.338452377 1204766.00762751 -226224.180635788
 308310.076504243 1200038.34999699 -237491.654972137
 323065.548463644 1192214.90135565 -256518.442417634
 339985.950401826 1182102.29770768 -280344.684634026
 357409.560457305 1170332.70137226 -306804.832281651
 374117.069712989 1157474.53692344 -334422.704734876
 389210.061099779 1144026.29056894 -362310.372118626
 402043.909475838 1130384.07330272 -390053.807308545
 412183.609031607 1116812.39342793 -417593.320409230
 419373.941414866 1103428.02575494 -445108.436405848
 423521.030452461 1090198.93466538 -472911.884538664
 424684.434013601 1076957.84813271 -501352.526443080
 423079.364071362 1063430.86704758 -530724.103114197
 419087.801692419 1049283.88517500 -561175.706622828
 413274.782532158 1034192.71330640 -592620.297311779
 406401.021115799 1017946.51781789 -624637.917370866
 399413.543241810 1000600.05096051 -656367.115577703
 393377.375641081 982705.757331782 -686362.197210524
 389268.747945940 965714.089972103 -712331.081184098
 387449.247119925 952896.970917725 -730355.991719779
 319001.331909662 1217102.70819838 -91916.1512193417
 327932.350546437 1213638.58147043 -105314.756565719
 341456.738474327 1207868.76725382 -126529.710985858
 357382.405970883 1200287.87214322 -152106.116929302
 374037.781115971 1191355.29029088 -179771.358988932
 390120.442902350 1181549.08174632 -208079.884594956
 404646.928084860 1171327.74129735 -236223.658801742
 416907.065120093 1161078.77779057 -263882.552921304
 426421.107316143 1151077.75383006 -291091.866584730
 432904.471511846 1141463.97940710 -318124.398907253
 436243.190417587 1132232.24167739 -345385.958949458
 436481.638956415 1123238.48030519 -373320.942534131
 433822.862298085 1114218.85672026 -402322.624762087
 428640.422076019 1104824.76628578 -432641.948131501
 421498.080396092 1094680.18377211 -464288.804945830
 413168.951897787 1083472.03685645 -496919.705240978
 404636.874973560 1071090.13031636 -529702.145615324
 397045.669659709 1057845.90236131 -561129.409299510
 391523.248451260 1044843.97435194 -588693.507779361
 388722.623820812 1034788.98740930 -607993.342221163
 340256.332388677 1213844.00318324 48557.1325805583
 347890.739849357 1212202.83853524 32950.6038355452
 359911.749083421 1209100.85254936 9385.74211675423
 374424.288641175 1204585.07215148 -18184.7998148564
 389803.779374035 1198899.37164771 -47357.5882768820
 404718.866241554 1192422.32075851 -76688.1945542184
 418141.064810897 1185577.59334528 -105419.405212569
 429319.390607352 1178756.12040653 -133297.788322385
 437742.054535114 1172260.29215872 -160427.965262545
 443099.902865035 1166270.29262796 -187151.039359784
 445259.184399310 1160828.59232614 -213940.806918929
 444247.176304683 1155838.48505990 -241311.569798706
 440251.781448282 1151074.86883827 -269730.321209025
 433634.400933783 1146209.03218660 -299525.444294136
 424952.849000970 1140853.32007895 -330784.233466092
 414986.872734653 1134635.83191934 -363231.132065474
 404750.751041602 1127320.20333534 -396075.017644617
 395461.726500651 1118994.50056971 -427797.570688304
 388398.527642386 1110383.77144857 -455789.309602393
 384519.094182140 1103483.76179289 -475413.593187777
 359447.813092093 1193901.71129804 192211.873571523
 365769.772030637 1194682.00776883 174633.344757074
 376145.681135938 1194942.98201320 148913.153277762
 388991.174442898 1194141.84660432 119417.533523837
 402770.009117184 1192251.16183284 88673.0950342086
 416162.643067687 1189528.09662580 58146.3048840114
 428126.291856118 1186356.02806825 28577.6802172298
 437888.603202233 1183132.69157588 190.339075527071
 444916.118592104 1180195.62875695 -27154.3035056884
 448879.384764041 1177777.08418329 -53831.8569761963
 449625.632266092 1175980.40414663 -80351.1716865263
 447164.051830866 1174771.60192331 -107263.344082155
 441665.563472318 1173982.82574092 -135075.111797087
 433476.793650867 1173328.36958137 -164157.964840728
 423145.741367137 1172437.91685878 -194644.402934316
 411452.761090045 1170915.54539571 -226302.544972445
 399433.455697358 1168436.37856565 -258377.194490945
 388366.223902241 1164897.30814703 -289370.642123000
 379668.921739527 1160653.78484735 -316676.068725800
 374611.431738341 1156950.99204774 -335678.578598130
 374611.622627972 1156950.83748480 335678.898285559
 379669.109915349 1160653.63768852 316676.382471827
 388366.400663798 1164897.17332345 289370.947638899
 399433.616350402 1168436.25694365 258377.496132530
 411452.898333454 1170915.43878394 226302.847064213
 423145.850747298 1172437.82703419 194644.706205008
 433476.873534758 1173328.29746797 164158.269332958
 441665.613613778 1173982.77206527 135075.414358317
 447164.072179456 1174771.56665076 107263.645564426
 449625.621535068 1175980.38784001 80351.4703898126
 448879.342308854 1177777.08669152 53832.1561128652
 444916.044138653 1180195.64995232 27154.6021988529
 437888.497490401 1183132.73074864 -190.041621621129
 428126.156036866 1186356.08420755 -28577.3844111706
 416162.479563345 1189528.16822624 -58146.0103444588
 402769.819810968 1192251.24761764 -88672.8014814863
 388990.966786341 1194141.94345823 -119417.241432679
 376145.458923124 1194943.08891782 -148912.856725019
 365769.539496234 1194682.12316888 -174633.042338367
 359447.578048870 1193901.83212768 -192211.562596862
 384519.236361306 1103483.57406535 475413.913926619
 388398.665481838 1110383.59364995 455789.625292091
 395461.854170299 1118994.33702723 427797.880448396
 404750.860463327 1127320.05645855 396075.323870899
 414986.957514598 1134635.70249087 363231.439504871
 424952.904779835 1140853.20992084 330784.541735930
 433634.425825413 1146208.94269019 299525.750737835
 440251.776083425 1151074.79992526 269730.624051798
 444247.140472210 1155838.43591697 241311.871150652
 445259.119597339 1160828.56224401 213941.105009898
 443099.805553769 1166270.28178363 187151.337332913
 437741.924815036 1172260.30047130 160428.258474341
 429319.229926272 1178756.14632724 133298.076618577
 418140.875074151 1185577.63486944 105419.690800899
 404718.649138452 1192422.37624010 76688.4776248085
 389803.541999576 1198899.43775639 47357.8685220555
 374424.035392886 1204585.14665511 18185.0789645823
 359911.485279142 1209100.93325696 -9385.46111083916
 347890.467054854 1212202.92460906 -32950.3174575360
 340256.058129387 1213844.09178124 -48556.8396107059
 388722.714664400 1034788.76866890 607993.656430385
 391523.334194775 1044843.76718297 588693.818447983
 397045.743481457 1057845.71212556 561129.715698403
 404636.930071891 1071089.95831503 529702.451323059
 413168.982715739 1083471.88407617 496920.012735475
 421498.082752313 1094680.05214112 464289.113160522
 428640.391838694 1104824.65845732 432642.253447329
 433822.800871447 1114218.77194078 402322.925791952
 436481.545683328 1123238.41722251 373321.241389118
 436243.068489888 1132232.19860571 345386.254147387
 432904.316838460 1141463.95640811 318124.691909820
 426420.922260051 1151077.74984740 291092.153422376
 416906.851209581 1161078.79078239 263882.833713713
 404646.686964168 1171327.76916682 236223.933644654
 390120.177636497 1181549.12169735 208080.155075040
 374037.498341602 1191355.33913100 179771.623671194
 357382.110397280 1200287.92681121 152106.380004863
 341456.434933441 1207868.82550803 126529.974027272
 327932.040411537 1213638.64211000 105315.023467126
 319001.020227630 1217102.76954136 91916.4206626827
 387449.286551764 952896.725589589 730356.290881458
 389268.779703891 965713.856965929 712331.379717886
 393377.395005145 982705.541385030 686362.495296090
 399413.542826918 1000599.85471283 656367.415000215
 406400.996607422 1017946.34195032 624638.219920469
 413274.729353754 1034192.56105628 592620.600091139
 419087.716604146 1049283.75821979 561176.007547205
 423079.245132482 1063430.76566283 530724.401077296
 424684.283412760 1076957.77004250 501352.821759526
 423520.849423633 1090198.87903024 472912.174915861
 419373.730115078 1103427.99043010 445108.723059567
 412183.370549026 1116812.37574948 417593.603081517
 402043.643358149 1130384.07308240 390054.082244889
 389209.770060354 1144026.30579402 362310.636691524
 374116.759416112 1157474.56271794 334422.962584595
 357409.235002678 1170332.73482210 306805.083819656
 339985.615225724 1182102.33528282 280344.932676597
 323065.205964992 1192214.94132095 256518.688022577
 308309.732301281 1200038.38974847 237491.900950685
 298178.992267759 1204766.04662042 226224.429272663
 381414.645365015 860583.180063501 839921.954357561
 382355.248688484 875444.021865451 823985.230025008
 385219.383027551 895606.513045267 800652.503680420
 389908.090283650 917465.373622690 773161.302868741
 395583.314524360 939303.530305374 743486.482825838
 401258.294610646 960329.895440779 712957.014025257
 406028.986886168 980291.741943684 682435.340090300
 409154.771928457 999252.343932704 652408.274527633
 410076.155027872 1017438.19434052 623062.194883964
 408408.178166048 1035127.50616287 594359.518230400
 403927.824944341 1052568.59311580 566119.333657583
 396563.594234356 1069921.60017326 538102.700355212
 386390.484645132 1087219.32554632 510103.874179815
 373631.298759549 1104344.83034413 482049.353488217
 358665.003337433 1121024.94434156 454105.626989926
 342045.489162042 1136838.63625593 426792.958445427
 324540.869524371 1151236.27090587 401095.628844363
 307219.507488576 1163558.01565901 378547.684358388
 291653.174072425 1173022.57574294 361255.994787387
 280511.778963278 1178608.81778392 351772.408559566
 371639.574540626 761509.444548050 934631.918681540
 371841.514101637 777444.845022973 921337.523525858
 373708.811205112 799626.076016452 901381.880171299
 377343.199372913 824413.346247334 877213.870920451
 382014.428898788 849932.183147141 850429.121727861
 386811.284050403 875171.838886787 822192.625769504
 390882.265081375 899659.482205283 793330.512360346
 393518.312807277 923272.356568627 764369.625247159
 394174.833649342 946096.674378136 735579.169204171
 392470.874552818 968313.829540334 707025.014456795
 388181.106129066 990109.653144765 678636.673421737
 381226.947540961 1011604.83038566 650285.408515339
 371668.787538769 1032804.88917812 621872.819938434
 359699.328365897 1053568.59812261 593429.888986079
 345638.457642475 1073593.79996706 565225.477300667
 329934.134757956 1092418.53172998 537879.772043324
 313185.710340688 1109431.46584324 512470.452176789
 296235.749748875 1123877.91441638 490603.959397756
 280452.481989057 1134834.85104549 474389.815571205
 268600.884686915 1141105.46557585 466134.435648439
 359330.293938736 660524.505237585 1012984.96966021
 359040.530917145 676430.647625056 1002537.23473557
 360295.595388783 699313.348122837 986254.204553584
 363279.014065806 725805.734956511 965807.343087931
 367328.971563787 753976.236002628 942411.106212227
 371615.257985717 782617.124593967 917039.784983963
 375356.462613448 811027.876812634 890444.125100539
 377890.658154253 838878.431321932 863151.816809507
 378698.829986577 866086.822098696 835482.042699143
 377411.038632566 892707.226655598 807579.188881258
 373805.188823744 918832.788374316 779464.828414777
 367801.684489087 944516.320004173 751106.033161577
 359454.383568430 969710.312562964 722498.364538933
 348936.787907241 994226.685984841 693762.095995113
 336522.569084531 1017715.84701820 665249.160949291
 322563.545608440 1039662.39072290 637655.316985441
 307482.406743012 1059389.45881501 612125.783654079
 291839.519159539 1076053.67673209 590328.392309773
 276653.744183861 1088598.56766106 574426.057238257
 264557.360064672 1095634.05923461 566696.428786745
 345860.669989650 564144.469096062 1074090.70653348
 345546.725075666 578946.260289991 1066287.07176101
 346764.465533692 601318.879420397 1053432.21975345
 349603.351698258 628371.969591137 1036569.14638265
 353458.804638817 658151.230184297 1016589.03326229
 357612.338965149 689266.874875018 994270.597543171
 361379.243150155 720804.021099833 970255.655332906
 364160.351291155 752232.272900097 945030.833927662
 365470.083033243 783299.596694192 918924.801681478
 364953.614745111 813923.350963361 892125.029780022
 362395.562650898 844089.229723532 864715.131910287
 357720.774816013 873764.747036487 836732.003105086
 350986.770476041 902831.102224724 808241.126598642
 342366.242790746 931035.687209523 779427.569347269
 332117.371064792 957966.071477215 750698.667012589
 320541.524921744 983043.531407445 722791.793726088
 307938.266001287 1005527.60173875 696877.103507209
 294607.758203640 1024508.83703117 674638.675566578
 281101.764869511 1038838.15831829 658290.596566633
 269519.944351339 1046915.40165208 650289.606482742
 332932.142614189 481365.759719286 1117583.38601786
 333415.746829781 494295.192785538 1111780.38886913
 335302.209012617 515450.269914346 1101559.29427128
 338495.049069214 542325.785421508 1087590.58249947
 342536.152601063 572891.711406564 1070520.20162250
 346876.012848271 605599.772642663 1050940.23522015
 350947.414747735 639367.483756504 1029366.09800193
 354217.760674270 673506.824026085 1006214.57300725
 356233.284316836 707626.046910548 981790.535601940
 356652.056701945 741523.494096669 956290.567281667
 355264.538843999 775085.220681776 929827.639425499
 352001.964574051 808194.135154689 902477.859981355
 346932.711286581 840655.963029091 874348.143808819
 340245.833554359 872145.957984362 845661.653168331
 332219.751524409 902178.900596566 816855.372103523
 323173.935164050 930102.330331687 788680.983453450
 313404.774520197 955107.051016984 762297.448063771
 303125.680526740 976234.695745445 739344.352481950
 292534.147004818 992320.663060395 721992.316730930
 282765.064579931 1001680.30765342 712902.455060580
 323249.114027950 425714.128181844 1142727.84260535
 325486.019529319 436977.846639026 1137830.67437850
 328409.354047375 457148.492421967 1129031.43577558
 332148.151267649 483727.323948739 1116796.71945875
 336538.213463931 514601.559994692 1101579.18292263
 341206.282138806 548141.581134947 1083821.25416456
 345677.589594929 583181.252802297 1063934.23732425
 349462.860390136 618948.247463857 1042270.69760611
 352124.986838577 654970.363246561 1019103.15858187
 353326.274985839 690972.726128012 994618.854672889
 352858.029283153 726776.172098320 968936.033884320
 350654.603733686 762204.555906155 942143.829123359
 346793.498671416 797007.033372806 914365.074219521
 341482.108313008 830800.355237437 885838.681904558
 335031.078819292 863034.909675245 857014.790902687
 327814.945767687 892985.728221534 828651.483702852
 320224.775374670 919764.436461114 801897.066696571
 312629.908543618 942337.732571965 778338.980762296
 305406.202110817 959513.656226689 760006.596119858
 299305.512178446 969755.843432611 749359.223221319
 303971.751167860 934132.756075435 -791546.966034114
 306469.954768159 923388.093151903 -803106.485572523
 311064.548823594 905704.875412529 -821271.548294535
 316857.853823000 882685.833384629 -843810.553934779
 323119.995415862 855644.178547026 -868916.531779659
 329263.464442073 825703.626412635 -895180.720989667
 334779.508760410 793797.119190698 -921606.339495145
 339232.343983417 760654.763711625 -947562.756843727
 342278.556845703 726803.355410926 -972703.296491791
 343689.680522463 692586.520583928 -996870.476003162
 343368.768001179 658207.064686009 -1020005.28433814
 341357.525051241 623789.327268339 -1042070.70115034
 337832.123633798 589457.931235491 -1062994.93623611
 333085.302201784 555428.833282482 -1082636.79206582
 327491.119210777 522107.932946624 -1100773.50263859
 321447.284388505 490191.302651212 -1117109.46692046
 315289.611930571 460759.007892127 -1131301.47536980
 309180.609085537 435352.656634666 -1142989.43400435
 303040.532980871 416028.102183652 -1151797.06740514
 297083.296174342 405365.008694948 -1157138.77982673
 289494.128486410 967927.065419124 -755552.629880918
 296100.694930568 958232.824062227 -765286.654966828
 304494.049965685 941529.387429321 -782531.288231606
 313310.786694431 919653.589257537 -804750.307626906
 322003.673532643 893955.468592378 -829883.537205203
 330151.900385521 865521.967399303 -856399.951856621
 337349.796599599 835233.865406905 -883249.079099776
 343223.485907256 803770.302995346 -909780.396394314
 347467.827833504 771611.319569503 -935644.970622848
 349878.080697300 739056.387774363 -960692.674717798
 350371.006742739 706263.637012554 -984876.268161048
 348995.065944893 673309.101566077 -1008169.98993888
 345929.764365718 640263.514654381 -1030506.99213894
 341473.202726820 607283.525402801 -1051737.70613817
 336015.281395303 574713.565668577 -1071609.76060518
 329992.867571790 543193.330566862 -1089768.39002532
 323823.524421850 513764.306191727 -1105773.02989054
 317823.572597470 487968.831702425 -1119117.52149062
 312178.432975768 467939.649491911 -1129215.01111929
 307410.685756211 456453.607703973 -1135208.44130753
 278517.491302730 1016636.15795288 -693129.396505589
 287484.486479195 1008350.61878854 -701520.584545822
 299363.693170348 993350.682031416 -717764.050812022
 311721.172453392 973398.212151119 -739510.150129288
 323640.068076204 949869.735293907 -764561.327316042
 334617.945493927 923836.164085585 -791269.235721957
 344254.265552815 896133.833674525 -818524.638426629
 352201.320560939 867387.090530019 -845661.454658986
 358181.331107856 838018.436910875 -872342.056972041
 362011.742402866 808267.690149321 -898443.248258940
 363624.422208399 778228.176375002 -923952.171916166
 363076.719714795 747901.593216309 -948877.196155859
 360554.761497817 717270.813502739 -973176.384309302
 356368.773703675 686389.206250021 -996704.863834505
 350938.633952815 655484.307305751 -1019181.94106557
 344765.887899704 625072.395745105 -1040178.06818696
 338386.508288211 596079.301294608 -1059119.19465922
 332298.928749720 569966.492957723 -1075297.65636135
 326890.287715522 548888.375163350 -1087848.20739235
 322654.752349085 536004.450530981 -1095510.18740881
 275915.557013186 1069776.83584444 -609095.688547962
 286020.313193793 1062552.78434749 -617027.869577112
 300210.184657667 1049261.59284899 -632829.665643740
 315432.880496280 1031458.58166996 -654327.687875253
 330289.144038949 1010438.94594375 -679317.045840197
 344018.247770056 987221.360293280 -706112.499465107
 356103.830685495 962591.342342457 -733592.121234557
 366156.128376676 937120.730633034 -761106.994310896
 373889.421398278 911178.013275124 -788359.537019381
 379126.074522109 884945.596285931 -815281.633639903
 381805.035277879 858451.541436136 -841923.569548527
 381989.056983851 831618.207541055 -868357.615357719
 379869.742408808 804328.483141318 -894597.172435061
 375769.796391133 776510.005385985 -920531.749900337
 370140.143951301 748237.750846453 -945878.413414169
 363546.353368027 719854.950677659 -970150.673790741
 356632.841673994 692113.676693102 -992643.493754350
 350045.715180956 666348.482667288 -1012421.41811076
 344312.374367873 644749.780886284 -1028249.06507285
 339962.643051911 630951.990028327 -1038207.30999517
 282367.732118426 1120259.68734067 -506790.023280493
 292931.052582585 1113748.49347718 -515077.783086334
 308399.301183129 1101933.56161135 -531207.800905847
 325512.571845641 1086207.43906051 -552941.584454447
 342521.006171186 1067732.35971780 -578079.924631437
 358390.081482296 1047438.01650785 -604962.463288559
 372437.519073293 1026046.26930874 -632509.903909098
 384188.064602503 1004078.27285863 -660133.156195898
 393318.744734961 981857.722310829 -687608.325355110
 399639.010252671 959522.258843558 -714951.136223291
 403084.417715244 937048.413322791 -742302.266063735
 403716.674447422 914291.958971780 -769826.273552425
 401727.864589505 891044.932611458 -797623.395970023
 397447.365175330 867111.497598439 -825652.877162512
 391348.144182914 842406.039440159 -853667.456143367
 384044.675113287 817078.465449239 -881159.406540724
 376266.660002483 791676.297224029 -907315.530509195
 368783.148510184 767371.207890730 -930961.787397415
 362274.054290604 746338.374079882 -950413.579386679
 357451.757495594 732506.654705434 -962918.310551065
 296637.833005718 1162926.02321355 -388791.064045123
 307251.941321428 1156995.59195208 -398129.219822692
 323215.061319638 1146538.59421189 -415368.158430225
 341287.773152706 1132818.32401670 -437943.753908451
 359529.639494159 1116851.65805544 -463605.697919010
 376699.551615026 1099465.23921655 -490737.268287709
 391964.119610851 1081314.12383206 -518337.077062735
 404757.140495036 1062876.03710944 -545908.067238221
 414708.159535051 1044444.55446600 -573325.514852014
 421604.291214597 1026132.37387241 -600709.250669041
 425370.262742755 1007887.99061977 -628308.339000496
 426060.696189435 989526.431678854 -656398.625143626
 423862.108843350 970775.310541955 -685190.221798292
 419102.598561781 951339.593946351 -714741.505572265
 412265.203212399 930991.335607097 -744877.148369923
 403996.183560343 909694.224350649 -775108.336150956
 395091.133332733 887779.715000024 -804549.317888770
 386433.414782938 866210.953988270 -831803.600646741
 378886.584161943 847024.873651619 -854718.228819595
 373438.645592690 834132.704887724 -869664.095805697
 316401.975176262 1193820.50910192 -257355.421685920
 326788.950374085 1188602.46550610 -268295.717120436
 342654.357411680 1179653.11551288 -287325.511095874
 360893.099570656 1168060.38136752 -311352.769508800
 379498.504364523 1154679.14350883 -338003.537924926
 397107.832016775 1140230.07623431 -365691.364295903
 412782.226694052 1125307.90210791 -393500.177506893
 425884.380476402 1110360.61431786 -421035.902930925
 436002.307927492 1095671.07814853 -448281.504090555
 442900.320541288 1081351.27182183 -475466.259489230
 446489.381355064 1067350.33010914 -502951.226335147
 446813.200566514 1053475.49543783 -531127.833228946
 444048.050465291 1039426.62373437 -560324.061297662
 438514.230862017 1024848.18458404 -590712.196255718
 430695.233555510 1009406.85463838 -622212.864316201
 421256.188592313 992907.891857021 -654390.229740387
 411045.570151588 975471.457379694 -686328.205755268
 401057.198133439 957807.595310942 -716454.579934401
 392356.321933209 941670.639874948 -742201.019640571
 386240.792609238 930621.185637014 -759151.954411696
 338701.980149699 1209806.03229083 -114890.224972995
 348660.683624257 1205675.83975342 -127792.519532696
 363982.119415249 1198681.09581720 -149097.545906782
 381754.532460096 1189606.21197250 -175071.323470067
 399992.196674617 1179102.10979760 -203159.760260773
 417285.217083299 1167776.29583935 -231777.913957378
 432639.227198212 1156171.11916152 -260078.974977020
 445373.949582395 1144720.68222575 -287760.378851825
 455049.007619453 1133718.02594823 -314901.999395919
 461410.372237089 1123299.34918728 -341831.056848874
 464355.425952924 1113443.43221544 -369008.390911823