# OOMMF OVF 2.0
#
# Segment count: 1
#
# Begin: Segment
# Begin: Header
#
# Title: Oxs_MinDriver::Magnetization
# Desc: Oxs vector field output
# Desc:  MIF source file: C:/Users/grl31/Documents/GitHub/phd-work/Skyrmions/stdprob3/drive-79/stdprob3.mif
# Desc:  Iteration: 543, State id: 1151
# Desc:  Stage: 0, Stage iteration: 543
# Desc:  Stage simulation time: -1 s
# Desc:  Total simulation time: -2 s
# meshunit: m
# meshtype: rectangular
# xbase: 3.1249999999999999e-09
# ybase: 3.1249999999999999e-09
# zbase: 3.1249999999999999e-09
# xnodes: 16
# ynodes: 16
# znodes: 16
# xstepsize: 6.2499999999999997e-09
# ystepsize: 6.2499999999999997e-09
# zstepsize: 6.2499999999999997e-09
# xmin: 0
# ymin: 0
# zmin: 0
# xmax: 9.9999999999999995e-08
# ymax: 9.9999999999999995e-08
# zmax: 9.9999999999999995e-08
# valuedim: 3
# valuelabels: Magnetization_x Magnetization_y Magnetization_z
# valueunits: A/m A/m A/m
#
# End: Header
#
# Begin: Data Text
 501892.097559308 -1157377.09551228 -11489.6523026338
 608587.461379508 -1104335.13501407 -40182.6124591652
 744483.869397086 -1015911.13877176 -72234.0449231145
 879033.557538336 -899394.288373266 -99696.2872026593
 997994.320622617 -762601.922873098 -118300.778333056
 1095832.06618044 -612336.997009079 -125478.746182614
 1171116.19413117 -453456.483247167 -120056.272488348
 1223665.90547327 -289403.350820046 -102161.065163613
 1253408.45944675 -123069.527346268 -73284.0783871230
 1260305.16931746 43108.4429382008 -36358.9501787087
 1244344.99639055 207689.984078553 4453.24490687187
 1205248.24112441 370093.919107078 44233.4627339832
 1142705.58177927 528907.902625513 77651.8823322264
 1058568.75389641 679069.467616040 99228.4351626043
 962249.054087354 809147.510483445 104434.166369967
 880170.881228368 898861.698642472 94320.1859105566
 447938.689986962 -1179196.97487577 19870.9681583382
 538962.580581130 -1140625.61535597 -6478.67626103644
 667456.917090677 -1069781.88275298 -40217.1366490515
 805433.269393532 -968169.037524912 -73995.9069887305
 936852.074841813 -838631.942024458 -102733.084251527
 1052227.22208304 -685161.007440806 -122154.401922611
 1145620.36978258 -512321.449635960 -128957.867154687
 1212792.32612749 -325540.783384875 -121274.081972963
 1250742.75282978 -131577.517667523 -99394.9395451552
 1258269.22876461 62432.2793457555 -66409.2565744089
 1235996.88690328 251175.828143407 -27781.8257286381
 1185327.86420116 431794.517154564 10038.9353286058
 1108083.09243987 601697.651322289 40758.1594419893
 1008752.87558050 755318.887854807 58825.5435742491
 900015.129082006 881961.474598500 60548.7874898779
 812062.298614336 964238.449388774 48460.9823310300
 368418.237903239 -1205883.29197537 40778.9042749450
 442230.394992739 -1181395.85609563 16897.9248309252
 556742.185894085 -1131927.78448808 -18084.8021484021
 692860.933448309 -1052610.70388377 -59193.4446488711
 836722.124737587 -938666.298126981 -101740.344279749
 976130.812691960 -786868.962202699 -139840.279441707
 1098684.75028692 -597249.629970140 -166535.671573566
 1191524.26562288 -375721.650193077 -175078.830607832
 1243725.29617726 -136000.820539910 -161865.979687552
 1250594.43838374 103619.901251704 -129714.677917370
 1214924.45388064 328450.169576745 -87341.2181434652
 1143358.73232737 531276.139821823 -45010.0364999345
 1043455.90635196 708959.766414490 -11191.6050539506
 925141.278502746 857666.957057233 8392.64567618696
 805510.742250226 970863.406530960 11230.3560737894
 715738.729983547 1038877.62470501 884.425102838556
 278626.933846703 -1229576.01964016 45379.2307117216
 335964.682529234 -1215785.40724325 23302.5008603116
 432185.884831819 -1185153.83328934 -13235.6832342280
 558364.265037031 -1129546.49719110 -62477.9091513108
 707279.246068564 -1037516.10617345 -121925.503609066
 868929.490840630 -895574.522297471 -185626.630304097
 1026375.20562032 -692406.524995024 -242232.475839065
 1154181.53436152 -428370.102265963 -275523.995583861
 1225436.69539542 -126363.964422001 -271820.685366042
 1227827.71436734 173192.462652441 -232363.735618959
 1170303.27894374 437862.375221273 -173828.094904314
 1071277.40217115 656260.384763332 -115049.840967622
 947949.985844725 829607.540332307 -68495.1405555187
 815934.741585218 961354.226661216 -39974.7329426096
 693673.970812088 1053296.81390971 -30523.3508056575
 608039.970242461 1104782.43817665 -35952.6049537359
 186323.927139866 -1247200.41714375 36386.0491202154
 227777.982864311 -1240737.88499487 15366.2675906510
 302700.532560781 -1224484.22093418 -23668.7809063839
 410600.941108874 -1190015.21205070 -82583.8553675989
 552668.424696331 -1122300.42631753 -162938.013827683
 726399.924012779 -997723.257493459 -261612.084525586
 916438.691148961 -787011.704644141 -363733.601743441
 1084513.69935050 -474024.311741807 -436669.690633272
 1177640.34608232 -91499.9838722624 -443103.147302566
 1170080.31594877 279255.845921769 -380102.167405949
 1084778.36816649 577831.763675168 -284456.984032814
 959695.793913309 795845.702215706 -192777.157175968
 821954.589006580 949122.226142037 -122910.879799803
 688618.261011099 1054085.74575286 -79104.7541026692
 574410.652371063 1121635.75681030 -59456.3907934817
 498603.332032516 1157381.97988951 -58404.6302280162
 93957.0860250181 -1257929.97817087 18266.5520470033
 119514.320309887 -1255890.44067809 -2226.92011736718
 170263.186456146 -1249228.97904450 -44573.9405055707
 251355.542061709 -1230952.80402629 -114564.465056315
 371053.181583154 -1185586.41185420 -219667.538299693
 536810.309074570 -1082137.03006046 -363818.046779066
 742863.134506639 -869551.844391655 -532525.477536049
 945490.413058777 -501012.672594357 -668269.116174582
 1059864.71288405 -18268.7878986143 -684033.970421710
 1041468.08333209 427299.504000473 -569481.164043633
 935507.074904649 741425.637332477 -408244.985307145
 800902.366325476 937416.759765805 -267122.909993482
 668102.753125342 1057085.78374833 -166606.686487891
 549553.262177799 1130737.98926166 -104748.472968272
 453480.394523004 1174909.23743884 -74116.4386833977
 391777.102336216 1197342.25653068 -66570.6671891538
 1273.43574680570 -1261557.38319269 -4558.31025282930
 10277.3461581453 -1261284.52193211 -24600.0367761112
 33588.9135422145 -1259166.00372662 -70158.3271261447
 78909.3785024766 -1250025.33445259 -150862.202456399
 157554.334114715 -1219717.66280244 -281095.865797370
 283935.552616239 -1133388.18306396 -475774.378640169
 466154.260254970 -919190.825134345 -727556.089627417
 672429.300212594 -489417.435341876 -948608.897869895
 802463.947658153 104089.874611975 -967866.902849307
 793219.921260508 609357.198730946 -768788.262000143
 702083.744763409 910102.523833225 -519943.499209613
 593230.798386040 1065391.01250368 -323370.748896060
 491554.990505259 1145727.12943394 -192957.163918309
 403716.903376353 1189665.23413789 -115146.530693758
 333612.758582223 1214322.50037277 -75318.1473387801
 288718.151448684 1226501.05872910 -62341.1010442776
 -92802.5770900283 -1257835.86298416 -28036.6616291181
 -101331.217143557 -1256608.97853476 -47066.8717569964
 -108575.785531280 -1253349.84793635 -94206.6260575526
 -106940.184288239 -1243801.81501409 -181852.338096057
 -87142.4160606915 -1214609.76625880 -329664.596144037
 -35831.4333746425 -1128786.84462729 -562232.868745361
 63808.1949010169 -900416.687678011 -881321.583608042
 212604.679726974 -411537.019552638 -1173450.45170850
 349387.645162103 265076.978856845 -1182882.87653815
 401298.309330411 787492.567716433 -900202.507016552
 386923.363421944 1050852.63546083 -580989.225633515
 347024.559469080 1162336.57025210 -346550.261143791
 300702.766154323 1209117.17207183 -197896.289877060
 255373.644738946 1230474.10085475 -110757.481089962
 216012.398625144 1241220.97206289 -65257.7433750925
 189237.858568724 1246351.27140450 -48445.5578114595
 -189237.833718762 -1246351.27756359 -48445.4964264157
 -216012.372153112 -1241220.97974896 -65257.6848100607
 -255373.611569860 -1230474.11307727 -110757.421780367
 -300702.728142424 -1209117.19491578 -197896.208062835
 -347024.520411833 -1162336.61728885 -346550.142492259
 -386923.322366601 -1050852.73069873 -580989.080715602
 -401298.276426562 -787492.763676900 -900202.350259397
 -349387.641017161 -265077.296050580 -1182882.80668117
 -212604.700186852 411536.713851675 -1173450.55521295
 -63808.2109007853 900416.513031757 -881321.760879830
 35831.4358229377 1128786.76724140 -562233.023955834
 87142.4270937464 1214609.73386690 -329664.712571639
 106940.201627945 1243801.80232144 -181852.414712217
 108575.803419938 1253349.84182602 -94206.6867338476
 101331.233898691 1256608.97528329 -47066.9224935277
 92802.5899559472 1257835.86085657 -28036.7144941303
 -288718.113949869 -1226501.07084540 -62341.0363346881
 -333612.720482136 -1214322.51485305 -75318.0826390806
 -403716.855900517 -1189665.25654530 -115146.465641608
 -491554.932539388 -1145727.16756698 -192957.085161722
 -593230.737596359 -1065391.07639647 -323370.649912147
 -702083.681178686 -910102.638582956 -519943.384212051
 -793219.869913245 -609357.398714631 -768788.156468027
 -802463.940863056 -104090.153202580 -967866.878521913
 -672429.343358365 489417.178489936 -948608.999803683
 -466154.315584962 919190.674289227 -727556.244753755
 -283935.586562728 1133388.11693824 -475774.515905830
 -157554.348094806 1219717.63644067 -281095.972349240
 -78909.3795305493 1250025.32519488 -150862.278626886
 -33588.9105368628 1259166.00085502 -70158.3801029502
 -10277.3370029946 1261284.52115121 -24600.0806388335
 -1273.42633607708 1261557.38302793 -4558.35848226895
 -391777.049965373 -1197342.27712267 -66570.6050300791
 -453480.340562386 -1174909.26184159 -74116.3820030663
 -549553.202742244 -1130738.02309310 -104748.419588085
 -668102.688144990 -1057085.83512562 -166606.621084409
 -800902.296349747 -937416.841557906 -267122.832764732
 -935507.011646975 -741425.759253907 -408244.908839127
 -1041468.04081924 -427299.687208991 -569481.104324085
 -1059864.71654704 18268.5685431357 -684033.970604529
 -945490.462961228 501012.477473989 -668269.191855866
 -742863.196105397 869551.721910118 -532525.591604926
 -536810.357015899 1082136.97090904 -363818.151981474
 -371053.210430107 1185586.38641920 -219667.626850032
 -251355.556718398 1230952.79472824 -114564.532803488
 -170263.187017579 1249228.97717261 -44573.9908226275
 -119514.311513506 1255890.44143842 -2226.96340663337
 -93957.0765708152 1257929.97948080 18266.5104675927
 -498603.267034385 -1157382.00995856 -58404.5892535340
 -574410.586192642 -1121635.79305526 -59456.3463903117
 -688618.193868367 -1054085.79292874 -79104.7099622954
 -821954.521787110 -949122.290665225 -122910.831073072
 -959695.732351383 -795845.788953277 -192777.105567107
 -1084778.31947132 -577831.879166436 -284456.935128870
 -1170080.29308534 -279255.989126430 -380102.132576630
 -1177640.35772394 91499.8223936691 -443103.149707502
 -1084513.73785563 474024.174443230 -436669.744045509
 -916438.741136721 787011.611702944 -363733.676894825
 -726399.962826800 997723.208662985 -261612.162980653
 -552668.449498788 1122300.40424479 -162938.081735205
 -410600.951767083 1190015.20413642 -82583.9164188191
 -302700.531315886 1224484.22027784 -23668.8307821812
 -227777.975621964 1240737.88681989 15366.2275864784
 -186323.913962708 1247200.42031073 36386.0080431259
 -608039.901223438 -1104782.47711020 -35952.5758380998
 -693673.901194295 -1053296.86064218 -30523.3203005526
 -815934.673035802 -961354.286223313 -39974.6997109025
 -947949.927513390 -829607.609739569 -68495.1071866550
 -1071277.35436321 -656260.469859079 -115049.800729295
 -1170303.24733745 -437862.473433820 -173828.060303274
 -1227827.70324164 -173192.569472910 -232363.714789288
 -1225436.70559692 126363.857738103 -271820.688970274
 -1154181.55879359 428370.013300767 -275524.031555261
 -1026375.23541808 692406.463701518 -242232.524785159
 -868929.513776013 895574.488642826 -185626.685312419
 -707279.261624658 1037516.09022856 -121925.549051358
 -558364.269178040 1129546.49234458 -62477.9597640623
 -432185.874265916 1185153.83661972 -13235.7300330875
 -335964.665219912 1215785.41286280 23302.4572237123
 -278626.911766627 1229576.02618241 45379.1890167607
 -715738.661234938 -1038877.67205360 884.443929644737
 -805510.678739804 -970863.458950047 11230.3798084890
 -925141.220039974 -857667.019802447 8392.67806423249
 -1043455.85913658 -708959.836424586 -11191.5722451289
 -1143358.69755751 -531276.217407250 -45010.0039545351
 -1214924.43416671 -328450.249615814 -87341.1913759326
 -1250594.43354468 -103619.979834920 -129714.661796640
 -1243725.30397744 136000.753957468 -161865.975696506
 -1191524.27995177 375721.595846177 -175078.849719722
 -1098684.76391936 597249.595804318 -166535.704165804
 -976130.823021084 786868.942510813 -139840.318145551
 -836722.128578450 938666.290626869 -101740.381888878
 -692860.925814213 1052610.70663177 -59193.4851398417
 -556742.163503502 1131927.79487142 -18084.8415506194
 -442230.369620771 1181395.86611174 16897.8885696760
 -368418.208733402 1205883.30221527 40778.8650040255
 -812062.224185719 -964238.510876395 48461.0061014871
 -900015.070927679 -881961.532189575 60548.8130339133
 -1008752.82887559 -755318.947481590 58825.5788730726
 -1108083.05744314 -601697.713477622 40758.1933139672
 -1185327.84041686 -431794.581704733 10038.9671821537
 -1235996.87498881 -251175.889764084 -27781.7986833454
 -1258269.22704373 -62432.3319218116 -66409.2397528003
 -1250742.75749381 131577.475584180 -99394.9365643730
 -1212792.33394425 325540.749388810 -121274.095058976
 -1145620.37557581 512321.430747219 -128957.890730287
 -1052227.22303760 685161.001238410 -122154.428489179
 -936852.068702790 838631.945727496 -102733.110006316
 -805433.252796195 968169.049302608 -73995.9335475813
 -667456.889486989 1069781.89897514 -40217.1632570704
 -538962.554347991 1140625.62759380 -6478.70402889882
 -447938.663875427 1179196.98524565 19870.9413976249
 -880170.808775021 -898861.766825058 94320.2122528056
 -962248.997651397 -809147.573638400 104434.197047350
 -1058568.71150911 -679069.528010637 99228.4740400219
 -1142705.55427552 -528907.955860440 77651.9244730627
 -1205248.22325251 -370093.973350582 44233.4958510415
 -1244344.98815228 -207690.033021010 4453.26430625575
 -1260305.16843647 -43108.4819674717 -36358.9344418103
 -1253408.46280460 123069.497701646 -73284.0707400120
 -1223665.91042763 289403.328506310 -102161.069031859
 -1171116.19637355 453456.473072603 -120056.289044171
 -1095832.06271354 612336.999658932 -125478.763528531
 -997994.311906451 762601.931359127 -118300.797159835
 -879033.537655869 899394.306519236 -99696.2988076478
 -744483.836637729 1015911.16185974 -72234.0578461054
 -608587.432259273 1104335.15044882 -40182.6293091734
 -501892.074106312 1157377.10552652 -11489.6680227919
 513350.327131536 -1152288.52982865 15875.0300228392
 626851.673258257 -1094773.28731245 -8823.83359755411
 767921.759194290 -1000037.82794017 -42070.7186009676
 903523.768341193 -877360.991014457 -73701.5766969365
 1019937.82448968 -736036.592629934 -97603.2755799616
 1112983.64808396 -583654.576850723 -110291.273171866
 1182613.83229888 -425241.941997635 -110196.394407374
 1229801.48706450 -263974.338186147 -97238.2749337537
 1255320.28917599 -102151.804910517 -72700.8339401336
 1259592.46706308 58615.9441142868 -39248.1710717257
 1242620.80792755 217812.828707996 -728.199597626930
 1203697.94453966 375760.964605452 38267.3060030590
 1141655.10505873 531858.975677840 72794.7937918915
 1057059.65463901 681592.878555325 98007.4760213124
 958016.863665144 813342.903826772 110573.236575530
 871693.638003620 905037.454693207 112280.176279732
 457465.142978207 -1175258.88902043 32274.1019602843
 553760.392432068 -1133498.56544844 8936.48805587525
 687417.467990085 -1057520.00242112 -25653.4617604697
 827628.504288867 -950083.004217649 -62632.0597161913
 958028.830783867 -815243.773248210 -95434.6922553432
 1069743.22218868 -658065.902659602 -118945.942583737
 1157877.42795764 -483856.270621542 -129431.070942647
 1219429.57305290 -298284.541093512 -124768.905692099
 1252563.25720759 -107722.734170518 -105026.330771383
 1256802.67562358 81631.3031036314 -73025.9941252132
 1232827.09701208 265580.203904763 -33969.6200394155
 1181507.62554552 442215.616148107 5874.56649432479
 1103756.41007445 609626.040515902 40339.9165024737
 1002938.81721401 762591.867428333 64162.3220938729
 890859.171655905 890155.932202273 74443.1565734043
 799137.399765292 973369.202317642 74035.4185159995
 376144.981397325 -1203365.67667768 44445.8331300518
 454124.414457179 -1176784.01636809 22356.7871902511
 573600.754756937 -1123535.60157908 -14119.3854529004
 713088.362989921 -1039034.68583775 -58833.1463833154
 857718.280018898 -919054.857795449 -105862.889640161
 994860.236090050 -761437.970689034 -148373.711818397
 1112369.72542261 -567679.572829272 -178669.884072715
 1198595.97547326 -344975.604538765 -189496.571925096
 1244480.70307969 -107247.880031873 -176960.738046320
 1246767.25145037 128367.719910148 -143675.259230398
 1208419.93435493 348733.583185285 -98262.8166262934
 1135333.36630101 547676.175397841 -51170.1591179593
 1034097.36034158 722541.337745248 -11229.2253894389
 913784.668921285 869656.359260202 15646.9345772072
 791075.004451664 982344.538345895 27367.4301450825
 698613.507638117 1050102.63239164 27803.9441209146
 285908.339373564 -1227907.66624545 45261.6346507236
 346869.897151877 -1212711.78492822 23681.8931887593
 447830.763013183 -1179302.70916874 -15561.4512583159
 578049.688809175 -1119165.60939718 -69830.7019097757
 729026.689319430 -1020627.87252783 -135603.329598607
 889346.433884415 -870796.407839418 -205732.757600716
 1041135.25624606 -660348.832550845 -267443.879102020
 1159927.66308886 -392552.388820182 -303347.769650184
 1222094.85507260 -91704.5839747980 -299372.452643923
 1218275.72902353 203569.576628180 -256735.479555461
 1157551.28583210 463299.599673815 -192296.470403112
 1056965.86966280 677168.506050745 -125759.276794640
 932580.505841366 846663.998539126 -70732.6277000489
 799330.709795507 975440.100254100 -33711.3944095522
 675306.699229108 1065490.92810449 -15471.7491668770
 588292.671509771 1115945.32064974 -11278.5143875511
 194481.427795488 -1245981.98884136 35430.0528438524
 239281.705518785 -1238591.37210739 13605.4865445010
 318788.664603872 -1220267.76889372 -29492.2097880852
 431091.723041555 -1181794.46807184 -95242.8080162274
 575922.721679468 -1107173.67701421 -184469.234559848
 748386.884849733 -972560.510617242 -292562.052720095
 930509.958153517 -751015.033757659 -402090.870035712
 1084553.31863781 -432023.433872029 -478172.858426823
 1164036.76832352 -51825.4370362400 -483613.437557189
 1149291.15669167 312609.907605313 -415877.762974020
 1062141.28776177 605257.703777442 -311558.064843121
 937338.722533549 818083.781075243 -209008.318733399
 800425.031477727 966636.883851265 -128383.545211799
 667814.276508262 1067678.17037240 -75078.9419274707
 553742.081222217 1132572.25276115 -46895.9558828431
 477845.294743304 1166967.24729029 -37426.5809599986
 103926.920722856 -1257145.50229528 18270.5261767200
 132646.863678968 -1254566.08664903 -4263.18017620512
 187925.856335893 -1246410.72078451 -51900.0823969174
 273739.957315217 -1224587.72939968 -130386.961356360
 396662.867072473 -1171890.90282170 -246738.145993965
 560608.933002902 -1055925.23916468 -402851.020169138
 754638.983707974 -828269.378208845 -579688.944442348
 934465.035790408 -452935.883739488 -716361.370416715
 1028417.71704678 21284.8694188883 -730378.932142127
 1003979.39428819 456100.363582812 -612819.112873693
 900629.708606334 764593.696397911 -442506.540429858
 770279.399011976 956569.905994188 -288432.129491450
 641404.271163098 1072090.24798438 -175420.899637102
 526040.342665481 1141991.20175164 -103378.353291120
 432004.188280321 1183535.24001386 -64545.7037497255
 371318.417090775 1204656.91459755 -49737.1306015505
 13585.9688830700 -1261490.81354926 -2404.10051319800
 25583.2946265201 -1261046.71417432 -25614.6564521551
 53456.9444091435 -1258053.43194467 -77416.7190316377
 103987.968988326 -1246028.25444394 -167778.193910941
 186757.230786563 -1208358.81146039 -310709.109029534
 311863.476731868 -1107315.48621249 -517825.276317850
 479372.501802149 -873892.607214180 -773345.425079444
 653758.156250198 -440044.730157170 -985144.831746175
 755290.082972160 130750.515780300 -1001993.32537999
 741506.288438656 620570.758882171 -810314.623060258
 657666.968959087 920857.538538183 -557714.068835026
 556848.942171190 1077058.56233490 -348444.457299661
 461837.871455841 1155992.59713605 -204783.609634020
 379183.199093895 1197581.28794792 -116484.295941063
 312571.588646294 1220290.94544480 -68836.3374645046
 269536.754332749 1231435.04035272 -49670.0148399988
 -77971.0185494099 -1258946.26640421 -22896.4951952947
 -83723.5833402193 -1257939.65307772 -46126.1501356235
 -86398.9303413645 -1254610.79409184 -100181.890095283
 -78943.3985678816 -1243414.69549834 -198083.986632621
 -53316.3595099463 -1208220.93981124 -359038.935673002
 454.990561939925 -1108262.61103846 -602746.388522377
 91283.0793465969 -860836.405522562 -917702.301005589
 211284.755354956 -376086.873496177 -1185523.87013397
 313784.195198135 261746.512674435 -1193556.73215209
 353222.793379473 770445.242231042 -934450.222258899
 342246.377023800 1044226.54284582 -619683.609230791
 309753.358628008 1164301.52260250 -374171.420879676
 270718.561438559 1213757.24452052 -212259.847322912
 231424.566825751 1234848.65231090 -114633.793771432
 196368.673959898 1244659.91586843 -61728.9934842891
 172022.240247196 1249151.35077059 -39732.6395711443
 -172022.220001494 -1249151.35546200 -39732.5797319144
 -196368.652607177 -1244659.92210242 -61728.9357124081
 -231424.539483839 -1234848.66346559 -114633.728810064
 -270718.528210506 -1213757.26667169 -212259.763036151
 -309753.322885585 -1164301.56855444 -374171.307480903
 -342246.340723065 -1044226.63894562 -619683.467341959
 -353222.757182939 -770445.424893956 -934450.085337365
 -313784.172695437 -261746.797577712 -1193556.67558881
 -211284.751240888 376086.597228342 -1185523.95850832
 -91283.0858823457 860836.236448991 -917702.458952293
 -454.992775203825 1108262.52910447 -602746.539171717
 53316.3691649074 1208220.90496843 -359039.051490635
 78943.4101144894 1243414.68143747 -198084.070293937
 86398.9435084773 1254610.78833527 -100181.950831106
 83723.5944780734 1257939.65030716 -46126.2054771430
 77971.0286807455 1258946.26491037 -22896.5428318835
 -269536.721926727 -1231435.05006178 -49669.9499826525
 -312571.555830632 -1220290.95733778 -68836.2756416818
 -379183.158213075 -1197581.30743278 -116484.228692594
 -461837.821921077 -1155992.63059149 -204783.532492992
 -556848.886627118 -1077058.62354434 -348444.356863268
 -657666.907712284 -920857.649100327 -557713.958506092
 -741506.239071367 -620570.947137887 -810314.524061846
 -755290.063695394 -130750.772442321 -1001993.30641861
 -653758.180108604 440044.489129453 -985144.923575632
 -479372.542454522 873892.458028121 -773345.568462902
 -311863.505112731 1107315.41632488 -517825.408672663
 -186757.246129219 1208358.78162215 -310709.215849495
 -103987.977967161 1246028.24298079 -167778.273478586
 -53456.9437091485 1258053.42818905 -77416.7805454133
 -25583.2887473360 1261046.71330107 -25614.7053152716
 -13585.9650943548 1261490.81350956 -2404.14275500320
 -371318.370474915 -1204656.93145913 -49737.0702220376
 -432004.140773352 -1183535.26045648 -64545.6468698690
 -526040.287302556 -1141991.23256296 -103378.294641270
 -641404.209267138 -1072090.29635272 -175420.830347138
 -770279.335827608 -956569.979292710 -288432.055139297
 -900629.646261282 -764593.813878190 -442506.464329547
 -1003979.35242494 -456100.531300925 -612819.056631214
 -1028417.71109114 -21285.0780620186 -730378.934447661
 -934465.067614978 452935.697447580 -716361.446690121
 -754639.035369170 828269.254299854 -579689.054233048
 -560608.976792722 1055925.17384134 -402851.130452062
 -396662.895455844 1171890.87401790 -246738.237168656
 -273739.972937901 1224587.71835646 -130387.032274756
 -187925.858554043 1246410.71809661 -51900.1389167028
 -132646.864233254 1254566.08643653 -4263.22546651103
 -103926.919313388 1257145.50297582 18270.4873675010
 -477845.235678872 -1166967.27291617 -37426.5360481301
 -553742.018920494 -1132572.28517162 -46895.9087974448
 -667814.213403523 -1067678.21320787 -75078.8940810728
 -800424.972119494 -966636.940305766 -128383.490226618
 -937338.663701658 -818083.862019263 -209008.265751834
 -1062141.23901888 -605257.811916365 -311558.020934459
 -1149291.12799616 -312610.051010205 -415877.734479347
 -1164036.77023536 51825.2839811196 -483613.449357293
 -1084553.35144387 432023.294450734 -478172.909984190
 -930510.001770506 751014.937700968 -402090.948510431
 -748386.921172572 972560.458464003 -292562.133177006
 -575922.749820752 1107173.65014544 -184469.307966086
 -431091.737542918 1181794.45756793 -95242.8727144539
 -318788.666260571 1220267.76725708 -29492.2595977512
 -239281.703131452 1238591.37305409 13605.4423471721
 -194481.422371465 1245981.99080494 35430.0135629742
 -588292.608274176 -1115945.35428463 -11278.4848037219
 -675306.632742040 -1065490.97073705 -15471.7152051115
 -799330.645597589 -975440.154272164 -33711.3535918186
 -932580.449535297 -846664.063839560 -70732.5884312053
 -1056965.82388865 -677168.584960152 -125759.236612689
 -1157551.25273481 -463299.695721262 -192296.438229109
 -1218275.71428610 -203569.685429685 -256735.463217884
 -1222094.86182063 91704.4750405903 -299372.458466223
 -1159927.68519805 392552.293719404 -303347.808176811
 -1041135.28525612 660348.765938451 -267443.930641886
 -889346.457966007 870796.368781929 -205732.818817216
 -729026.705232952 1020627.85309158 -135603.390333018
 -578049.691058432 1119165.60487611 -69830.7557490738
 -447830.756356311 1179302.71103359 -15561.5015057172
 -346869.886698036 1212711.78868987 23681.8536787667
 -285908.324570844 1227907.67108782 45261.5967873387
 -698613.437734725 -1050102.67820675 27803.9701919914
 -791074.941748342 -982344.588019138 27367.4596249165
 -913784.613771167 -869656.416543252 15646.9715658417
 -1034097.31406752 -722541.404512558 -11229.1906349549
 -1135333.33214348 -547676.249249695 -51170.1265459528
 -1208419.91323766 -348733.664197562 -98262.7888114029
 -1246767.24530372 -128367.795420162 -143675.245103990
 -1244480.70867209 107247.805026537 -176960.744174961
 -1198595.98895853 344975.542411625 -189496.599730123
 -1112369.74341611 567679.526124431 -178669.920441196
 -994860.250828151 761437.942861705 -148373.755804849
 -857718.287699376 919054.845809298 -105862.931470139
 -713088.359388639 1039034.68584786 -58833.1898541267
 -573600.736023038 1123535.61066391 -14119.4236025912
 -454124.389722868 1176784.02661752 22356.7501134759
 -376144.956367197 1203365.68579482 44445.7981144500
 -799137.329518660 -973369.258163346 74035.4425344833
 -890859.111335893 -890155.989774432 74443.1900006821
 -1002938.76637319 -762591.931058432 64162.3605344595
 -1103756.37320514 -609626.104716365 40339.9550859079
 -1181507.60119318 -442215.680775192 5874.59941035363
 -1232827.08386918 -265580.267702977 -33969.5982368836
 -1256802.67268186 -81631.3600367841 -73025.9811110563
 -1252563.26176061 107722.686223989 -105026.325648652
 -1219429.58235787 298284.499158502 -124768.915003832
 -1157877.43741834 483856.240252404 -129431.099838079
 -1069743.22972947 658065.884962110 -118945.972676479
 -958028.831955046 815243.768078978 -95434.7246561368
 -827628.492396747 950083.012728037 -62632.0877638502
 -687417.442273711 1057520.01845424 -25653.4899256976
 -553760.362375230 1133498.58033637 8936.46218817028
 -457465.112850362 1175258.90145127 32274.0763356175
 -871693.561997684 -905037.523902488 112280.208492848
 -958016.807338524 -813342.965094441 110573.273928360
 -1057059.61294994 -681592.937307830 98007.5170646084
 -1141655.07486054 -531859.034707796 72794.8361067680
 -1203697.92549165 -375761.022323319 38267.3384048173
 -1242620.79882341 -217812.880716390 -728.178855925258
 -1259592.46548085 -58615.9879447230 -39248.1563909507
 -1255320.29236306 102151.769379004 -72700.8288344168
 -1229801.49291272 263974.310290039 -97238.2766995013
 -1182613.83876142 425241.919263029 -110196.412783797
 -1112983.65087475 583654.567360461 -110291.295231032
 -1019937.82223082 736036.592764472 -97603.2981700286
 -903523.752791438 877361.005108654 -73701.5995441217
 -767921.731959243 1000037.84812713 -42070.7358735036
 -626851.641631061 1094773.30529583 -8823.84921893902
 -513350.293443879 1152288.54504557 15875.0148598197
 535355.726383741 -1141226.84965012 50447.5448832070
 652726.720304171 -1079238.63554968 27225.4854278971
 797162.479558617 -977761.920185908 -7939.74415698058
 932722.440685215 -848284.912142171 -44620.4817669940
 1045581.65778103 -701897.087465477 -75159.2072756835
 1132800.22662475 -547093.737104658 -94876.3421445953
 1195788.52769537 -389017.293883370 -101512.427863524
 1236730.17952649 -230439.615768284 -94580.5342124265
 1257219.91284225 -72922.7445991703 -75031.9598038871
 1258032.74826053 82846.4489697412 -45160.8360873771
 1239023.91136518 237273.448639922 -8395.74623211364
 1198893.77280488 391452.573716690 31113.2605044448
 1135539.19248406 545302.213113481 68888.8207559610
 1048473.10971924 694367.737517259 100533.647152510
 945367.965459851 826308.653375047 122649.297424701
 855085.254189937 917803.344179749 134222.428820048
 477237.571115771 -1166581.78177442 53671.9485996945
 577566.054809562 -1121155.90406814 31246.1521442243
 715670.547869081 -1038911.94244894 -5203.23636638835
 857543.910498753 -924111.264669089 -46757.2774780188
 985837.679222979 -782534.310670970 -85519.3180861116
 1092245.52917875 -620710.190614623 -115186.779515441
 1173225.31017879 -444817.571032599 -131259.784303854
 1227358.93515169 -260642.441483815 -131167.804432445
 1254171.44178791 -73883.4585298404 -114650.163882378
 1253897.19817150 110485.124183535 -84168.1927497264
 1227091.32965538 289504.593833648 -44535.2641482119