# OOMMF OVF 2.0
#
# Segment count: 1
#
# Begin: Segment
# Begin: Header
#
# Title: Oxs_MinDriver::Magnetization
# Desc: Oxs vector field output
# Desc:  MIF source file: C:/Users/grl31/Documents/GitHub/phd-work/Skyrmions/stdprob3/drive-12/stdprob3.mif
# Desc:  Iteration: 1585, State id: 3583
# Desc:  Stage: 0, Stage iteration: 1585
# Desc:  Stage simulation time: -1 s
# Desc:  Total simulation time: -2 s
# meshunit: m
# meshtype: rectangular
# xbase: 3.1249999999999999e-09
# ybase: 3.1249999999999999e-09
# zbase: 3.1249999999999999e-09
# xnodes: 16
# ynodes: 16
# znodes: 16
# xstepsize: 6.2499999999999997e-09
# ystepsize: 6.2499999999999997e-09
# zstepsize: 6.2499999999999997e-09
# xmin: 0
# ymin: 0
# zmin: 0
# xmax: 9.9999999999999995e-08
# ymax: 9.9999999999999995e-08
# zmax: 9.9999999999999995e-08
# valuedim: 3
# valuelabels: Magnetization_x Magnetization_y Magnetization_z
# valueunits: A/m A/m A/m
#
# End: Header
#
# Begin: Data Text
 -26576.9253281730 -1261006.25249798 -26576.8530877332
 -24742.2804792112 -1261030.82162176 -27175.6765433015
 -21934.6178454760 -1261066.46832603 -27922.4985026970
 -18523.5392349665 -1261104.83461444 -28651.4489205686
 -14721.2220909781 -1261140.39641383 -29285.0998335192
 -10666.3910572162 -1261169.54490717 -29783.1835002871
 -6455.76208944436 -1261190.02847246 -30124.1786016729
 -2160.80152480413 -1261200.56008891 -30297.0144923544
 2160.80223378818 -1261200.56009040 -30297.0143795442
 6455.76251885063 -1261190.02847369 -30124.1784582303
 10666.3911043221 -1261169.54490644 -29783.1835143801
 14721.2213771671 -1261140.39641731 -29285.1000428105
 18523.5381855054 -1261104.83461119 -28651.4497423582
 21934.6170200063 -1261066.46831091 -27922.4998343467
 24742.2804241821 -1261030.82159314 -27175.6779213496
 26576.9255246689 -1261006.25246526 -26576.8544440833
 -24676.5422067727 -1261083.49089327 -24676.4701714409
 -23203.8432246556 -1261101.94799730 -25157.2919045294
 -20716.1861185323 -1261132.05051291 -25811.2711961231
 -17572.0398702934 -1261166.04180393 -26473.9368880028
 -14003.6282560884 -1261198.26094095 -27060.5970767712
 -10163.7994598913 -1261224.97327518 -27526.2581279536
 -6157.69084772695 -1261243.85886746 -27846.7633936111
 -2061.97956026977 -1261253.59798108 -28009.6543895653
 2061.98013344625 -1261253.59798322 -28009.6542510441
 6157.69122531161 -1261243.85886676 -27846.7633416472
 10163.7994525474 -1261224.97327295 -27526.2582325011
 14003.6276858228 -1261198.26094050 -27060.5973926321
 17572.0389694578 -1261166.04179994 -26473.9376760681
 20716.1854855163 -1261132.05049756 -25811.2724539517
 23203.8431349668 -1261101.94797205 -25157.2932529201
 24676.5424082366 -1261083.49086424 -24676.4714536177
 -21805.9870105418 -1261189.29265732 -21805.9151602925
 -20646.6204996859 -1261202.49276789 -22167.9998412342
 -18569.5867644722 -1261225.37551046 -22696.9939605332
 -15842.4456712331 -1261252.38917098 -23256.3678292598
 -12676.8200617247 -1261278.71347693 -23764.1764439852
 -9225.68702502772 -1261300.90364369 -24173.2928139473
 -5598.47196290323 -1261316.74336009 -24457.3291698108
 -1876.15731256503 -1261324.95248134 -24602.3413648764
 1876.15776258235 -1261324.95248209 -24602.3412920773
 5598.47224784280 -1261316.74336209 -24457.3290014128
 9225.68704934534 -1261300.90363888 -24173.2930557612
 12676.8196885719 -1261278.71347502 -23764.1767443402
 15842.4450258169 -1261252.38916769 -23256.3684470791
 18569.5862734480 -1261225.37549642 -22696.9951426042
 20646.6204328137 -1261202.49275017 -22168.0009117665
 21805.9870297791 -1261189.29263704 -21805.9163139824
 -18355.3045356687 -1261299.17114682 -18355.2330059818
 -17453.6874980794 -1261308.08941486 -18619.9701480661
 -15787.4458431680 -1261323.98455162 -19026.1259197646
 -13539.4790382005 -1261343.32906795 -19470.9948926627
 -10878.5571155726 -1261362.63235388 -19884.6074972285
 -7940.04201871307 -1261379.17164463 -20223.0559707774
 -4827.13168479215 -1261391.09951165 -20460.2979314430
 -1619.09059315107 -1261397.31591462 -20582.0520844353
 1619.09092993555 -1261397.31591536 -20582.0520123729
 4827.13191781080 -1261391.09951314 -20460.2977848455
 7940.04211303233 -1261379.17164245 -20223.0560696597
 10878.5569010134 -1261362.63235273 -19884.6076880977
 13539.4785861451 -1261343.32906626 -19470.9953162627
 15787.4454237195 -1261323.98454222 -19026.1268916114
 17453.6873223017 -1261308.08940352 -18619.9710806218
 18355.3043810971 -1261299.17113643 -18355.2338745841
 -14544.7693986982 -1261398.56205592 -14544.6981872043
 -13866.7733514692 -1261404.02731287 -14731.7139069835
 -12592.8447307571 -1261413.89173849 -15028.1372665757
 -10843.6365696591 -1261426.12738612 -15361.3675355926
 -8742.62414763517 -1261438.55238443 -15677.2446636604
 -6397.59486833222 -1261449.34186772 -15939.2471700291
 -3895.98190829733 -1261457.19383396 -16124.5269221852
 -1307.85261318639 -1261461.30711703 -16220.0828327460
 1307.85281798622 -1261461.30711796 -16220.0827436281
 3895.98217336173 -1261457.19383498 -16124.5267790220
 6397.59501047345 -1261449.34186693 -15939.2471759613
 8742.62406380433 -1261438.55238426 -15677.2447236579
 10843.6361400325 -1261426.12738563 -15361.3678789014
 12592.8443144889 -1261413.89173357 -15028.1380277976
 13866.7730340782 -1261404.02730676 -14731.7147288568
 14544.7690921021 -1261398.56205152 -14544.6988751241
 -10513.3385175834 -1261478.64501756 -10513.2676576140
 -10039.4326353234 -1261481.46704807 -10637.1521363267
 -9140.89785684844 -1261486.59050714 -10837.7523499450
 -7893.63896713595 -1261493.01833830 -11067.3423426806
 -6380.54075871715 -1261499.62300237 -11288.0814780394
 -4678.46934992930 -1261505.41458844 -11473.0905840143
 -2852.92139359263 -1261509.65883512 -11604.8448575911
 -958.349135396696 -1261511.89131898 -11673.0692923833
 958.349212505966 -1261511.89131979 -11673.0691980598
 2852.92160838535 -1261509.65883530 -11604.8447851342
 4678.46944712257 -1261505.41458868 -11473.0905182948
 6380.54061593108 -1261499.62300343 -11288.0814407652
 7893.63853805262 -1261493.01833889 -11067.3425820377
 9140.89738636019 -1261486.59050424 -10837.7530845613
 10039.4322619786 -1261481.46704438 -10637.1529263810
 10513.3382113223 -1261478.64501476 -10513.2682996012
 -6352.40273006271 -1261534.27451424 -6352.33219725276
 -6071.70151085245 -1261535.29938323 -6422.90975910011
 -5536.92573178272 -1261537.16506553 -6538.69488693976
 -4789.94927163557 -1261539.52070672 -6672.70559655145
 -3878.22987686130 -1261541.95849873 -6802.73468228490
 -2847.48740908253 -1261544.10957497 -6912.47648209867
 -1737.98928606921 -1261545.69325235 -6991.00483756702
 -584.093721170122 -1261546.52859109 -7031.78165574850
 584.093579011161 -1261546.52859137 -7031.78161650529
 1737.98927013025 -1261545.69325291 -6991.00474102461
 2847.48726907837 -1261544.10957642 -6912.47627385238
 3878.22953840272 -1261541.95850003 -6802.73463519760
 4789.94873739818 -1261539.52070837 -6672.70566908087
 5536.92525316789 -1261537.16506478 -6538.69543623824
 6071.70119681231 -1261535.29938087 -6422.91052042738
 6352.40246156895 -1261534.27451228 -6352.33285436656
 -2124.35537166469 -1261562.68391452 -2124.28519544032
 -2031.34993762518 -1261562.79830884 -2147.19807117955
 -1853.78955602079 -1261563.00677405 -2185.02230078240
 -1605.06574084748 -1261563.27073950 -2229.03655609526
 -1300.61331450956 -1261563.54482730 -2271.93457799662
 -955.576387465198 -1261563.78741077 -2308.26482774010
 -583.514019073234 -1261563.96641574 -2334.32468210897
 -196.150215383185 -1261564.06096699 -2347.87574521453
 196.149909084410 -1261564.06096731 -2347.87559824691
 583.513735631049 -1261563.96641634 -2334.32443046163
 955.575929821606 -1261563.78741170 -2308.26451072643
 1300.61275144547 -1261563.54482830 -2271.93434554199
 1605.06513994150 -1261563.27074043 -2229.03646224545
 1853.78918665820 -1261563.00677446 -2185.02237787267
 2031.34965867499 -1261562.79830851 -2147.19852864150
 2124.35513655071 -1261562.68391406 -2124.28570511737
 2124.35839993252 -1261562.68366865 2124.42818023669
 2031.35269174554 -1261562.79806120 2147.34096057967
 1853.79172786013 -1261563.00652361 2185.16505107199
 1605.06723708604 -1261563.27048539 2229.17929404359
 1300.61453749928 -1261563.54456937 2272.07710118193
 955.577285689718 -1261563.78714907 2308.40748041104
 583.514646399840 -1261563.96615151 2334.46732245755
 196.150294386560 -1261564.06070086 2348.01873412734
 -196.150671119416 -1261564.06070044 2348.01892577436
 -583.515086475145 -1261563.96615046 2334.46777924458
 -955.577914609547 -1261563.78714800 2308.40780382264
 -1300.61520418455 -1261563.54456754 2272.07773152558
 -1605.06775958390 -1261563.27048416 2229.17961608849
 -1853.79199433581 -1261563.00652255 2185.16543297993
 -2031.35291367566 -1261562.79806079 2147.34098753485
 -2124.35861051178 -1261562.68366845 2124.42808962904
 6352.40568737147 -1261534.27377927 6352.47519835712
 6071.70426773373 -1261535.29864239 6423.05266086606
 5536.92786618646 -1261537.16431559 6538.83776726370
 4789.95094176327 -1261539.51994569 6672.84827651113
 3878.23125315391 -1261541.95772561 6802.87726879247
 2847.48847018793 -1261544.10879098 6912.61912292026
 1737.99004814301 -1261545.69246126 6991.14740184288
 584.093864863662 -1261546.52779440 7031.92457330406
 -584.094195174578 -1261546.52779224 7031.92493342910
 -1737.99046116741 -1261545.69245709 6991.14805021448
 -2847.48905903723 -1261544.10878695 6912.61961617469
 -3878.23178836432 -1261541.95771997 6802.87801018465
 -4789.95130518229 -1261539.51994065 6672.84896852278
 -5536.92805584875 -1261537.16431092 6538.83850764059
 -6071.70448621202 -1261535.29863839 6423.05324081644
 -6352.40591263013 -1261534.27377651 6352.47552193285
 10513.3413956132 -1261478.64380158 10513.4106821433
 10039.4352924486 -1261481.46582103 10637.2951448151
 9140.90006164909 -1261486.58926331 10837.8952681631
 7893.64085998169 -1261493.01707471 11067.4850201958
 6380.54234551494 -1261499.62171835 11288.2240763837
 4678.47056605971 -1261505.41328691 11473.2331941206
 2852.92229158557 -1261509.65752278 11604.9872946057
 958.349428981045 -1261511.88999743 11673.2120878197
 -958.349620104299 -1261511.88999375 11673.2124691848
 -2852.92256119855 -1261509.65751435 11604.9881451351
 -4678.47102247945 -1261505.41327894 11473.2338847160
 -6380.54263971254 -1261499.62170877 11288.2249799393
 -7893.64098979562 -1261493.01706509 11067.4860237723
 -9140.90017572184 -1261486.58925268 10837.8964085367
 -10039.4355406773 -1261481.46581186 10637.2959975114
 -10513.3416206795 -1261478.64379301 10513.4114862245
 14544.7721995899 -1261398.56037259 14544.8413731499
 13866.7760387567 -1261404.02561108 14731.8570925751
 12592.8470478000 -1261413.89001199 15028.2802407138
 10843.6385678115 -1261426.12563057 15361.5102846168
 8742.62594863443 -1261438.55059959 15677.3872719193
 6397.59618555348 -1261449.34005925 15939.3897654196
 3895.98283599778 -1261457.19201233 16124.6692075279
 1307.85303925173 -1261461.30528159 16220.2255425528
 -1307.85307391924 -1261461.30527592 16220.2259803010
 -3895.98294372507 -1261457.19199920 16124.6702092602
 -6397.59635358935 -1261449.34004737 15939.3906379563
 -8742.62592519813 -1261438.55058511 15677.3884502440
 -10843.6385285122 -1261426.12561455 15361.5116277792
 -12592.8470570433 -1261413.88999448 15028.2817027186
 -13866.7761434465 -1261404.02559583 14731.8583001009
 -14544.7723932526 -1261398.56035628 14544.8425944208
 18355.3073815724 -1261299.16901689 18355.3765199246
 17453.6902147444 -1261308.08726094 18620.1135060245
 15787.4482538182 -1261323.98236046 19026.2691804148
 13539.4811271344 -1261343.32684064 19471.1377259840
 10878.5589667612 -1261362.63008888 19884.7501624374
 7940.04336956211 -1261379.16935017 20223.1985533352
 4827.13263467218 -1261391.09720125 20460.4401448129
 1619.09117153785 -1261397.31358563 20582.1947731965
 -1619.09101308180 -1261397.31357786 20582.1952617211
 -4827.13254038256 -1261391.09718228 20460.4413362061
 -7940.04324140807 -1261379.16933274 20223.1996905022
 -10878.5587699810 -1261362.63006658 19884.7516847962
 -13539.4809061633 -1261343.32681556 19471.1395044934
 -15787.4480992985 -1261323.98233570 19026.2709503987
 -17453.6902453691 -1261308.08723485 18620.1152449551
 -18355.3074103707 -1261299.16899383 18355.3780755200
 21805.9898846124 -1261189.29011827 21806.0591368374
 20646.6232281982 -1261202.49019723 22168.1435518878
 18569.5891543771 -1261225.37289031 22697.1376010761
 15842.4477302254 -1261252.38650543 23256.5109855032
 12676.8218632650 -1261278.71076850 23764.3192318559
 9225.68835415341 -1261300.90090138 24173.4353932871
 5598.47298990681 -1261316.74059666 24457.4714505840
 1876.15800709847 -1261324.94969526 24602.4841496087
 -1876.15767823979 -1261324.94968688 24602.4846042528
 -5598.47270503132 -1261316.74057292 24457.4727399005
 -9225.68805850245 -1261300.90087278 24173.4369985038
 -12676.8215838720 -1261278.71073663 23764.3210725511
 -15842.4474437279 -1261252.38647143 23256.5130245981
 -18569.5889293354 -1261225.37285580 22697.1397031096
 -20646.6231727190 -1261202.49016240 22168.1455847961
 -21805.9897959263 -1261189.29008823 21806.0609626967
 24676.5450626683 -1261083.48800991 24676.6146684104
 23203.8459072617 -1261101.94506956 25157.4361936504
 20716.1883976559 -1261132.04752775 25811.4152206503
 17572.0417962098 -1261166.03876068 26474.0805838547
 14003.6299448819 -1261198.25785465 27060.7400439724
 10163.8007764924 -1261224.97015178 27526.4007520018
 6157.69193329825 -1261243.85571693 27846.9058479913
 2061.98037812104 -1261253.59480721 28009.7972458877
 -2061.97987361595 -1261253.59479592 28009.7977914245
 -6157.69153360111 -1261243.85568587 27846.9073430904
 -10163.8004008395 -1261224.97011558 27526.4025497303
 -14003.6296574511 -1261198.25781361 27060.7421050465
 -17572.0415566944 -1261166.03872292 26474.0825417981
 -20716.1881931222 -1261132.04748384 25811.4175303664
 -23203.8457517200 -1261101.94503128 25157.4382560327
 -24676.5449821524 -1261083.48797606 24676.6164787738
 26576.9280908977 -1261006.24938484 26576.9980356321
 24742.2831442282 -1261030.81845280 27175.8211656362
 21934.6199658398 -1261066.46509028 27922.6429731297
 18523.5410926239 -1261104.83131379 28651.5929985940
 14721.2236836535 -1261140.39307217 29285.2429387619
 10666.3923976051 -1261169.54152396 29783.3262819020
 6455.76322268578 -1261190.02506152 30124.3211622575
 2160.80244800375 -1261200.55665163 30297.1575127424
 -2160.80182886448 -1261200.55663909 30297.1580787296
 -6455.76271360170 -1261190.02502522 30124.3227909982
 -10666.3920061604 -1261169.54148470 29783.3280846839
 -14721.2233959904 -1261140.39302471 29285.2451273570
 -18523.5408931740 -1261104.83127440 28651.5948613193
 -21934.6197739980 -1261066.46504474 27922.6451807075
 -24742.2829715630 -1261030.81841116 27175.8232550441
 -26576.9280251688 -1261006.24935113 26576.9997008525
 -27175.7488429683 -1261030.82148570 -24742.2080032137
 -25237.0390521305 -1261061.30632121 -25236.9665030745
 -22320.5729274403 -1261102.83643881 -25900.9434023043
 -18815.9111452465 -1261146.06440917 -26570.5971326374
 -14934.5583457240 -1261185.39621098 -27162.2213769384
 -10811.5603464879 -1261217.28931058 -27631.3268936647
 -6540.07536023088 -1261239.56140842 -27954.0170911313
 -2188.45093420998 -1261250.97476523 -28117.9703253076
 2188.45150698165 -1261250.97476729 -28117.9701882775
 6540.07574072110 -1261239.56140762 -27954.0170380061
 10811.5603244244 -1261217.28930855 -27631.3269949205
 14934.5577641339 -1261185.39621106 -27162.2216931088
 18815.9102404208 -1261146.06440612 -26570.5979182634
 22320.5723012336 -1261102.83642404 -25900.9446613389
 25237.0389669978 -1261061.30629631 -25236.9678323628
 27175.7490292841 -1261030.82145616 -24742.2093040272
 -25157.3641422646 -1261101.94788644 -23203.7709305562
 -23626.0513762864 -1261123.72657400 -23625.9790784010
 -21059.6238423376 -1261157.94544555 -24218.9967203894
 -17838.5079669818 -1261195.69179297 -24832.3489687612
 -14200.7213965661 -1261230.95684545 -25381.9606312567
 -10298.9590928141 -1261259.93420183 -25821.3233154241
 -6236.52501412667 -1261280.31090978 -26124.9686319396
 -2087.88097943458 -1261290.78853946 -26279.6198121143
 2087.88158958962 -1261290.78854140 -26279.6196706373
 6236.52523138553 -1261280.31090995 -26124.9685721407
 10298.9590785300 -1261259.93419827 -25821.3234949671
 14200.7209050764 -1261230.95684419 -25381.9609685663
 17838.5071866740 -1261195.69178824 -24832.3497697601
 21059.6232155177 -1261157.94543436 -24218.9978481471
 23626.0513593210 -1261123.72655110 -23625.9803182181
 25157.3641027404 -1261101.94786503 -23203.7721369105
 -22168.0717291301 -1261202.49268293 -20646.5485043087
 -20978.3207755943 -1261217.36986899 -20978.2486670678
 -18850.9712882833 -1261242.73305584 -21467.1869206091
 -16067.4085918700 -1261272.26480894 -21989.6185465126
 -12846.4744145109 -1261300.76036040 -22467.5527894734
 -9343.43243942546 -1261324.62112641 -22854.5691171276
 -5667.62265801259 -1261341.58119976 -23124.1109851310
 -1898.94842809171 -1261350.35030373 -23261.9582681227
 1898.94887531713 -1261350.35030542 -23261.9581400731
 5667.62291088201 -1261341.58120040 -23124.1108882110
 9343.43240151719 -1261324.62112227 -22854.5693608370
 12846.4740104174 -1261300.76035999 -22467.5530437815
 16067.4079621973 -1261272.26480403 -21989.6192880248
 18850.9707644282 -1261242.73304729 -21467.1878825889
 20978.3205779768 -1261217.36985408 -20978.2497611998
 22168.0716230003 -1261202.49266706 -20646.5495873501
 -18620.0417922816 -1261308.08934935 -17453.6158003302
 -17702.4657777606 -1261317.83419981 -17702.3940145889
 -16005.1482080366 -1261335.11372802 -18083.0591030975
 -13718.1612498685 -1261355.98758364 -18501.7717466696
 -11015.9215629244 -1261376.68557359 -18892.7891655365
 -8036.61181620228 -1261394.33662789 -19213.8312823163
 -4884.28879140964 -1261407.02593586 -19439.3817186579
 -1637.99755579467 -1261413.62714849 -19555.2838655253
 1637.99786920729 -1261413.62714807 -19555.2838664086
 4884.28894295154 -1261407.02593779 -19439.3815551362
 8036.61177989097 -1261394.33662537 -19213.8314632077
 11015.9213647576 -1261376.68557367 -18892.7892758565
 13718.1607222661 -1261355.98758183 -18501.7722612137
 16005.1477532136 -1261335.11372210 -18083.0599183256
 17702.4655075372 -1261317.83419094 -17702.3949164703
 18620.0415343422 -1261308.08934140 -17453.6166496580
 -14731.7851945499 -1261404.02726493 -13866.7019778335
 -14045.2636371556 -1261409.88345020 -14045.1921477379
 -12752.3673885558 -1261420.46294481 -14325.6311921239
 -10977.2008627280 -1261433.53776395 -14641.0991562778
 -8846.95498420229 -1261446.76231715 -14940.8214647818
 -6471.78494623317 -1261458.20867522 -15189.9534054796
 -3940.21174207146 -1261466.51926069 -15366.4060438563
 -1322.53429511278 -1261470.86677146 -15457.4936147593
 1322.53444458430 -1261470.86677177 -15457.4935768929
 3940.21180202942 -1261466.51926154 -15366.4059588304
 6471.78497155740 -1261458.20867509 -15189.9534057858
 8846.95476492640 -1261446.76231945 -14940.8214002671
 10977.2004276420 -1261433.53776345 -14641.0995252047
 12752.3668996436 -1261420.46294165 -14325.6319050324
 14045.2632885918 -1261409.88344481 -14045.1929801835
 14731.7849363827 -1261404.02726121 -13866.7025908579
 -10637.2230879865 -1261481.46701547 -10039.3615552268
 -10158.8096548982 -1261484.45473451 -10158.7385303847
 -9249.05922580907 -1261489.90087587 -10349.6768348060
 -7985.45994986947 -1261496.72321458 -10567.9074189669
 -6453.11478565652 -1261503.71559696 -10777.9294664455
 -4730.53714138079 -1261509.83300556 -10954.1849354762
 -2884.14351113406 -1261514.30820490 -11079.8388739307
 -968.742666532601 -1261516.65966069 -11144.9475155917
 968.742560800481 -1261516.65966060 -11144.9475350348
 2884.14348877594 -1261514.30820654 -11079.8386930622
 4730.53709431598 -1261509.83300640 -10954.1848584796
 6453.11453997345 -1261503.71559951 -10777.9293147880
 7985.45945001961 -1261496.72321529 -10567.9077121979
 9249.05869955515 -1261489.90087437 -10349.6774880123
 10158.8092955871 -1261484.45473209 -10158.7391895965
 10637.2228136257 -1261481.46701296 -10039.3621613975
 -6422.98037517287 -1261535.29936413 -6071.63077823165
 -6140.09757127942 -1261536.37688001 -6140.02680970492
 -5599.40709913829 -1261538.34943945 -6250.63618236514
 -4843.44967090810 -1261540.83910439 -6378.33724560556
 -3920.83952903049 -1261543.41121456 -6502.27325372426
 -2878.23949798428 -1261545.67684754 -6606.95721416309
 -1756.50315267333 -1261547.34255988 -6681.92305639752
 -590.268967361638 -1261548.22040877 -6720.86936071327
 590.268790852534 -1261548.22040891 -6720.86934957505
 1756.50298446295 -1261547.34256134 -6681.92282591331
 2878.23926413843 -1261545.67684943 -6606.95695432317
 3920.83923768859 -1261543.41121673 -6502.27300920918
 4843.44912300331 -1261540.83910575 -6378.33739461496
 5599.40668548133 -1261538.34943922 -6250.63659829986
 6140.09727195982 -1261536.37687887 -6140.02734401475
 6422.98014548034 -1261535.29936259 -6071.63134180480
 -2147.26827083417 -1261562.79830270 -2031.27954507388
 -2053.61358087051 -1261562.91818952 -2053.54312524682
 -1874.20662642210 -1261563.13804061 -2089.73816773346
 -1622.62010194711 -1261563.41645875 -2131.73072500298
 -1314.64643158409 -1261563.70516815 -2172.65416702977
 -965.734187995402 -1261563.96031276 -2207.33241921003
 -589.641674149563 -1261564.14835893 -2232.22244534886
 -198.196168535081 -1261564.24760928 -2245.17065441404
 198.195865214477 -1261564.24760952 -2245.17054277520
 589.641438229967 -1261564.14835940 -2232.22224325487
 965.733860912018 -1261563.96031381 -2207.33196463726
 1314.64595531937 -1261563.70516911 -2172.65389615634
 1622.61959618652 -1261563.41645972 -2131.73053885995
 1874.20630149022 -1261563.13804091 -2089.73827848973
 2053.61332886406 -1261562.91818927 -2053.54352909242
 2147.26807614593 -1261562.79830247 -2031.27989334309
 2147.27114080723 -1261562.79806715 2031.42279539828
 2053.61619263316 -1261562.91795228 2053.68625319777
 1874.20872237242 -1261563.13780042 2089.88128530705
 1622.62159149967 -1261563.41621524 2131.87369946824
 1314.64767515495 -1261563.70492087 2172.79699275317
 965.735185390767 -1261563.96006206 2207.47526550765
 589.642333530484 -1261564.14810578 2232.36533859795
 198.196237854110 -1261564.24735441 2245.31385447563
 -198.196538793595 -1261564.24735401 2245.31405494484
 -589.642620135157 -1261564.14810485 2232.36579175234
 -965.735605313486 -1261563.96006103 2207.47566574131
 -1314.64816119052 -1261563.70491944 2172.79752683848
 -1622.62201798501 -1261563.41621408 2131.87406035828
 -1874.20896805406 -1261563.13779963 2089.88153677622
 -2053.61645685966 -1261562.91795166 2053.68636678695
 -2147.27137582201 -1261562.79806696 2031.42267046861
 6422.98318717701 -1261535.29866014 6071.77407413044
 6140.10017133159 -1261536.37617056 6140.16997217096
 5599.40917370983 -1261538.34872086 6250.77935076485
 4843.45124420457 -1261540.83837542 6378.48022976362
 3920.84092843716 -1261543.41047370 6502.41614702243
 2878.24050379692 -1261545.67609724 6607.10003858929
 1756.50381815213 -1261547.34180241 6682.06588945333
 590.269149824124 -1261548.21964599 6721.01252184677
 -590.269389633473 -1261548.21964432 6721.01281509080
 -1756.50408931367 -1261547.34179899 6682.06646509110
 -2878.24094292468 -1261545.67609317 6607.10062415603
 -3920.84130483446 -1261543.41046946 6502.41674280139
 -4843.45152156970 -1261540.83837072 6378.48094848253
 -5599.40937860024 -1261538.34871685 6250.77997697696
 -6140.10035809786 -1261536.37616748 6140.17041937698
 -6422.98343144979 -1261535.29865745 6071.77437497151
 10637.2258155974 -1261481.46585139 10039.5049341368
 10158.8122348481 -1261484.45355948 10158.8818610549
 9249.06130497416 -1261489.89968561 10349.8200530435
 7985.46167152006 -1261496.72200499 10568.0505062910
 6453.11631179965 -1261503.71436787 10778.0724101644
 4730.53832217801 -1261509.83176011 10954.3278535595
 2884.14427005716 -1261514.30694976 11079.9815811987
 968.742884309902 -1261516.65839579 11145.0906726480
 -968.743054222795 -1261516.65839285 11145.0909902546
 -2884.14439815373 -1261514.30694276 11079.9823452600
 -4730.53853126138 -1261509.83175295 10954.3285878210
 -6453.11643890449 -1261503.71436137 10778.0730949963
 -7985.46178426482 -1261496.72199634 10568.0514535222
 -9249.06138633600 -1261489.89967685 10349.8210481666
 -10158.8123548621 -1261484.45355240 10158.8826202303
 -10637.2260111463 -1261481.46584419 10039.5056323665
 14731.7878856335 -1261404.02565545 13866.8455267125
 14045.2661675553 -1261409.88182432 14045.3356382065
 12752.3695778258 -1261420.46129480 14325.7745313434
 10977.2027728786 -1261433.53608560 14641.2423251606
 8846.95661866857 -1261446.76061264 14940.9644071312
 6471.78618909029 -1261458.20694716 15190.0963831691
 3940.21253958988 -1261466.51752033 15366.5487094286
 1322.53471933185 -1261470.86501711 15457.6367485463
 -1322.53466031277 -1261470.86501338 15457.6370580822
 -3940.21257348254 -1261466.51750795 15366.5497169251
 -6471.78620153837 -1261458.20693772 15190.0971622121
 -8846.95656517653 -1261446.76059995 14940.9655103916
 -10977.2026335116 -1261433.53607330 14641.2434892606
 -12752.3695039015 -1261420.46127967 14325.7759287991
 -14045.2662472997 -1261409.88180993 14045.3368506522
 -14731.7879567102 -1261404.02564272 13866.8466092897
 18620.0443937984 -1261308.08732068 17453.7596286491
 17702.4683443017 -1261317.83214605 17702.5377804184
 16005.1504325302 -1261335.11164187 18083.2026473110
 13718.1631917241 -1261355.98545984 18501.9150964175
 11015.9233022115 -1261376.68341676 18892.9321519982
 8036.61301759838 -1261394.33444086 19213.9743590588
 4884.28969455689 -1261407.02373425 19439.5243521519
 1637.99806859493 -1261413.62492721 19555.4271054298
 -1637.99789855592 -1261413.62492343 19555.4273632329
 -4884.28953147656 -1261407.02371735 19439.5254894592
 -8036.61286594732 -1261394.33442610 19213.9753912214
 -11015.9230724471 -1261376.68339578 18892.9336865736
 -13718.1629774746 -1261355.98543949 18501.9166425616
 -16005.1502726071 -1261335.11161888 18083.2043923429
 -17702.4682843127 -1261317.83212507 17702.5393352301
 -18620.0444038537 -1261308.08729911 17453.7611764357
 22168.0743296405 -1261202.49027532 20646.6927809697
 20978.3232957793 -1261217.36742947 20978.3928107630
 18850.9734931167 -1261242.73057340 21467.3308324273
 16067.4104919386 -1261272.26227973 21989.7622274050
 12846.4760910653 -1261300.75779293 22467.6959649641
 9343.43366229658 -1261324.61852462 22854.7122070601
 5667.62361262081 -1261341.57857749 23124.2537865520
 1898.94908729949 -1261350.34766113 23262.1015060024
 -1898.94868383500 -1261350.34765421 23262.1019136875
 -5667.62333782146 -1261341.57855638 23124.2550053203
 -9343.43334950134 -1261324.61850108 22854.7136339932
 -12846.4758001915 -1261300.75776302 22467.6978104442
 -16067.4102482607 -1261272.26225014 21989.7641024294
 -18850.9733170520 -1261242.73054190 21467.3328376489
 -20978.3231810493 -1261217.36739958 20978.3947226380
 -22168.0742925394 -1261202.49024688 20646.6945585060
 25157.3666761449 -1261101.94517215 23203.9157020332
 23626.0539445845 -1261123.72381790 23626.1236270590
 21059.6259512168 -1261157.94263785 24219.1410914876
 17838.5098152065 -1261195.68893032 24832.4930304342
 14200.7230069456 -1261230.95394044 25382.1040796813
 10298.9603310108 -1261259.93126098 25821.4664689659
 6236.52598894622 -1261280.30794266 26125.1116477283
 2087.88181047702 -1261290.78555051 26279.7632007498
 -2087.88124155195 -1261290.78554179 26279.7636640464
 -6236.52551752509 -1261280.30791720 26125.1129896544
 -10298.9599535719 -1261259.93122907 25821.4681782346
 -14200.7226997797 -1261230.95390329 25382.1060976550
 -17838.5095980125 -1261195.68889433 24832.4950142969
 -21059.6257555197 -1261157.94259819 24219.1433269228
 -23626.0537957310 -1261123.72378079 23626.1257567859
 -25157.3666210756 -1261101.94513947 23203.9175376502
 27175.7514050998 -1261030.81858244 24742.3531587774
 25237.0415417045 -1261061.30337031 25237.1114658690
 22320.5750085383 -1261102.83342902 25901.0881534954
 18815.9129206639 -1261146.06134021 26570.7415401270
 14934.5598932204 -1261185.39309829 27162.3650527164
 10811.5615696936 -1261217.28616080 27631.4701845462
 6540.07643419017 -1261239.55822957 27954.1602639291
 2188.45181953688 -1261250.97156399 28118.1138501306
 -2188.45113709588 -1261250.97155263 28118.1144126769
 -6540.07586156027 -1261239.55820020 27954.1617230678
 -10811.5611666402 -1261217.28612512 27631.4719708352
 -14934.5595915178 -1261185.39305777 27162.3671000075
 -18815.9127298931 -1261146.06130218 26570.7434801148
 -22320.5748324768 -1261102.83338508 25901.0904446335
 -25237.0413757253 -1261061.30333161 25237.1135660799
 -27175.7513721830 -1261030.81854733 24742.3549839526
 -27922.5708899874 -1261066.46799264 -21934.5448646174
 -25901.0159114505 -1261102.83623987 -22320.5000269734
 -22869.8053333053 -1261151.60796076 -22869.7324200447
 -19248.1110448563 -1261201.53483436 -23444.1820416298
 -15257.5053231924 -1261246.37550482 -23962.8822604119
 -11034.5299171470 -1261282.40573614 -24379.5621149105
 -6670.65771515798 -1261307.41859117 -24668.3816147415
 -2231.43673713077 -1261320.19408103 -24815.7130149916
 2231.43717485004 -1261320.19408181 -24815.7129359166
 6670.65799981164 -1261307.41859322 -24668.3814326420
 11034.5299174427 -1261282.40573065 -24379.5623989189
 15257.5049163128 -1261246.37550351 -23962.8825883957
 19248.1103897575 -1261201.53483262 -23444.1826732093
 22869.8048634175 -1261151.60794857 -22869.7335623103
 25901.0158449568 -1261102.83622312 -22320.5010509660
 27922.5708658808 -1261066.46797360 -21934.5459896183
 -25811.3434149040 -1261132.05022897 -20716.1134228207
 -24219.0690669827 -1261157.94527100 -21059.5510948846
 -21559.8886253605 -1261197.75469848 -21559.8159760247
 -18237.8190258194 -1261240.97722635 -22090.9538333231
 -14501.9130414642 -1261280.89098385 -22575.1960363905
 -10508.1444474897 -1261313.42108029 -22966.5761916454
 -6359.45916190889 -1261336.17377483 -23238.8666932361
 -2128.41371850161 -1261347.83777757 -23378.0432851081
 2128.41415862617 -1261347.83777956 -23378.0431379658