# OOMMF OVF 2.0
#
# Segment count: 1
#
# Begin: Segment
# Begin: Header
#
# Title: Oxs_MinDriver::Magnetization
# Desc: Oxs vector field output
# Desc:  MIF source file: C:/Users/grl31/Documents/GitHub/phd-work/Skyrmions/stdprob3/drive-225/stdprob3.mif
# Desc:  Iteration: 1218, State id: 2494
# Desc:  Stage: 0, Stage iteration: 1218
# Desc:  Stage simulation time: -1 s
# Desc:  Total simulation time: -2 s
# meshunit: m
# meshtype: rectangular
# xbase: 3.1249999999999999e-09
# ybase: 3.1249999999999999e-09
# zbase: 3.1249999999999999e-09
# xnodes: 16
# ynodes: 16
# znodes: 16
# xstepsize: 6.2499999999999997e-09
# ystepsize: 6.2499999999999997e-09
# zstepsize: 6.2499999999999997e-09
# xmin: 0
# ymin: 0
# zmin: 0
# xmax: 9.9999999999999995e-08
# ymax: 9.9999999999999995e-08
# zmax: 9.9999999999999995e-08
# valuedim: 3
# valuelabels: Magnetization_x Magnetization_y Magnetization_z
# valueunits: A/m A/m A/m
#
# End: Header
#
# Begin: Data Text
 463074.466458040 -1153423.22571636 -216162.743810343
 548714.742945257 -1111895.35203745 -232702.144190797
 667461.794031007 -1040367.91089268 -252346.575987600
 795606.841848690 -941039.103690468 -270193.614743110
 918911.649890400 -816633.649774609 -283302.475581236
 1028443.23398209 -670907.104022556 -289374.503312718
 1118466.25927868 -508345.118455399 -286649.434530525
 1185183.47384015 -334170.859689883 -274261.555434374
 1226298.17166585 -154347.551328390 -252822.187489316
 1241115.57004654 24945.4768114026 -224853.943469197
 1230599.79234850 198202.595168146 -194651.774354632
 1197150.24513153 360985.818984922 -167540.920351583
 1144567.21987928 509258.780435393 -148898.638832695
 1078908.46176081 637979.990553590 -143134.530121542
 1010579.05111087 739679.263540179 -152164.383031874
 957772.163599024 803043.684174101 -171297.270444936
 425457.618933091 -1173745.24399390 -181265.958228328
 502028.559662690 -1140139.09145862 -198996.503310669
 615650.487685608 -1078202.54022172 -223613.931119816
 744363.038515404 -987404.339870146 -250011.534567245
 873958.933190847 -867419.299263587 -274461.241853815
 994030.151730094 -719345.772369010 -293249.293511908
 1096103.45740805 -546346.793566427 -302674.450089137
 1173053.28894567 -354399.239416638 -299827.602654592
 1219714.78477514 -152436.364916899 -283916.236539584
 1234060.18744729 49135.3739661049 -257353.064294390
 1217610.27296495 241057.261533821 -225535.032203390
 1174591.76551030 416825.419650687 -195295.122436218
 1110981.78117388 572094.294298768 -173138.762989271
 1034781.63753435 702777.963641038 -163949.770848393
 957964.659763578 803164.801659884 -169645.049847163
 900467.152757309 863869.004587733 -185576.616621542
 361579.466646265 -1199306.24809608 -149914.120403866
 427777.827343577 -1174702.64788950 -169201.803753855
 532390.526170228 -1126041.75445994 -200349.009919993
 658974.377548936 -1048872.80464504 -239098.390477651
 795381.261799559 -937989.243065751 -281237.016038135
 930366.346479499 -789221.134119755 -321088.607266078
 1051639.11834523 -601838.394528188 -351276.447483665
 1145957.43838189 -381744.194531394 -364146.056243582
 1202054.00353408 -143170.539209758 -355130.680467112
 1215000.02351735 94598.6722198494 -326152.517982070
 1187901.33360205 314556.147877445 -285472.034318469
 1129276.71831278 506797.267648364 -243803.309862311
 1049567.99299198 667590.542243112 -210426.535668109
 960119.809517147 795668.086756080 -191394.038594807
 874924.795128440 889040.165792123 -188848.133156580
 814471.640516637 942693.786689515 -198780.789439212
 280146.318900747 -1223037.80636047 -131324.008232638
 335485.854416774 -1206536.02828460 -152543.386800061
 427788.612241658 -1171354.01110708 -190987.211139033
 547350.502017507 -1110067.75561786 -244349.006131939
 686457.309512119 -1012307.83759193 -309125.597591463
 835363.540430159 -866445.278277056 -378139.876223521
 978781.189490475 -664056.883181333 -438822.595040478
 1095248.35324027 -408258.755709335 -474663.316499285
 1163368.72058599 -120829.639756496 -472782.031212461
 1173299.68157025 163357.625478939 -433856.628788810
 1131732.31909575 414540.783543691 -372675.901571450
 1054855.15967045 619602.902409619 -308094.573728836
 959457.565214525 778640.483267952 -254380.835142546
 860118.928261876 896500.901134594 -219159.746371129
 771276.636167208 977165.861403035 -204520.563098224
 711322.518486834 1021180.04552092 -206787.379311192
 187395.296034616 -1241166.78829772 -126243.564468742
 230893.212184962 -1231205.72593001 -149566.760755913
 307213.788038830 -1207830.40878815 -195741.725149358
 412946.462331927 -1162175.09449396 -265280.417491465
 546125.790321373 -1079734.16117868 -357029.681187130
 701382.920747848 -940435.620612958 -463888.211624840
 863434.664180680 -724024.197235176 -567290.907232004
 1002672.08144916 -426220.686721261 -636029.916129915
 1083868.53880051 -78632.4693857923 -640777.150244678
 1090105.70390592 258634.330667742 -579937.296809567
 1034270.34445440 537811.740350370 -482278.775649964
 943023.681243494 746074.777047618 -381612.623724987
 839292.801713516 893111.051965821 -299148.245469256
 738736.043618778 993307.758357918 -243224.558717652
 653748.017973439 1057424.83260163 -214512.664689434
 598661.011970999 1090715.51802856 -208552.349295111
 86894.2557389451 -1251608.40653718 -132193.857361041
 117094.460230466 -1246213.16736189 -157451.769745990
 173160.907852302 -1231661.65181898 -211126.280574584
 256553.922356118 -1198929.44293306 -297149.300370822
 370687.055470218 -1130973.86853007 -418376.202152919
 516424.846849451 -999812.526118501 -570289.155685093
 683070.463004185 -770387.633606647 -729017.878708165
 837445.145770485 -425699.328440424 -842030.367926108
 930785.936302807 -9590.28579671422 -851525.101284864
 937731.951363194 380975.425852224 -753037.809945985
 877712.481011066 677624.824020474 -601660.061386473
 786358.236672016 875804.184044593 -454045.356486569
 689177.026089034 1001124.25192514 -338134.129950468
 599907.035733246 1078840.36564080 -260316.048027659
 527388.682962496 1125157.82342794 -217785.399834208
 481561.516151281 1148038.18834127 -204098.640836062
 -19531.4728049871 -1252991.92776164 -145530.689042491
 -4244.10089140156 -1249775.48119326 -172025.187500928
 27164.6507497791 -1239806.21492369 -231715.476619904
 79021.0396144990 -1214539.47814553 -331962.290393338
 157952.602575063 -1155770.08702906 -480412.231513266
 270342.072419950 -1029435.63242672 -677293.786689972
 414093.093339370 -785999.848410114 -895701.166275261
 563026.243669663 -393532.314138575 -1058150.83876871
 665364.444978861 89325.4647773777 -1068110.73752642
 688122.990146591 521625.378640839 -919751.676110714
 649021.221618091 819234.499833513 -706523.686149905
 582912.646992232 995299.408848413 -511019.924896733
 512401.103675267 1093734.73028346 -364333.473130159
 448095.194522828 1148483.20866194 -267855.272462707
 396095.194770210 1178494.23303473 -214031.236745430
 363227.867196418 1192463.33029630 -194026.166558925
 -130774.914855520 -1244210.58830435 -162441.880421339
 -131668.506461808 -1240387.96223534 -188813.501812593
 -128309.264355260 -1229594.91149326 -251361.328030899
 -115386.265256722 -1203629.37331953 -359877.440792694
 -85982.7936152241 -1143684.41362005 -525492.485354111
 -31297.7884472887 -1012145.14452698 -752417.494325942
 56165.4451463104 -750560.345701929 -1012449.52523584
 170144.452150814 -318870.241744780 -1208686.09045148
 276953.603603427 208078.119251016 -1213074.45305677
 339314.373482268 656081.067473877 -1022728.12602843
 354739.039498082 938839.754874446 -764388.356427688
 342005.465684768 1088885.70158742 -537503.136027297
 316986.962619526 1163018.59089178 -372097.371246147
 288773.903846258 1199233.60195035 -264571.032672769
 263173.728711227 1216861.46821913 -203806.738354684
 245770.204618912 1224305.12306099 -179508.782757718
 -245770.188005119 -1224305.08453658 -179509.068252182
 -263173.694061124 -1216861.42398264 -203807.047218957
 -288773.843988112 -1199233.53562400 -264571.398647048
 -316986.862554820 -1163018.47287648 -372097.825355997
 -342005.302318883 -1088885.46932488 -537503.710496826
 -354738.778923830 -938839.290074433 -764389.048233371
 -339313.972858663 -656080.234308640 -1022728.79342050
 -276953.040883828 -208076.939413454 -1213074.78390596
 -170143.825670585 318871.410620402 -1208685.87027155
 -56164.8907638382 750561.155809717 -1012448.95543134
 31298.2047294539 1012145.59140029 -752416.875879742
 85983.0840580584 1143684.63082635 -525491.965101658
 115386.460834379 1203629.47784952 -359877.028478846
 128309.398419235 1229594.96522594 -251360.996750207
 131668.595510301 1240387.99575050 -188813.219540813
 130774.980578179 1244210.61535573 -162441.620312758
 -363227.904060834 -1192463.26870911 -194026.476054480
 -396095.223856639 -1178494.16275702 -214031.569878224
 -448095.209228945 -1148483.11289789 -267855.658468140
 -512401.100898925 -1093734.57662678 -364333.938314235
 -582912.608237983 -995299.138001803 -511020.496623192
 -649021.118563819 -819234.005216243 -706524.354339236
 -688122.754724805 -521624.559656162 -919752.316720331
 -665364.009287970 -89324.3640526028 -1068111.10098612
 -563025.648919181 393533.389054342 -1058150.75545855
 -414092.486955758 786000.616681215 -895700.772436028
 -270341.563836280 1029436.07751380 -677293.313191941
 -157952.220648308 1155770.31664601 -480411.804675122
 -79020.7659188420 1214539.59147336 -331961.940915328
 -27164.4579049070 1239806.27312575 -231715.187814126
 4244.23994548862 1249775.51484700 -172024.939573175
 19531.5809633233 1252991.95286391 -145530.458400695
 -481561.607054532 -1148038.09102467 -204098.973751553
 -527388.770600086 -1125157.71448147 -217785.750467569
 -599907.116189043 -1078840.22602073 -260316.441248419
 -689177.101325257 -1001124.04725593 -338134.582575900
 -786358.289521893 -875803.862787856 -454045.884625141
 -877712.479492804 -677624.308428085 -601660.644291204
 -937731.829832095 -380974.656728274 -753038.350397560
 -930785.620874273 9591.24728224876 -851525.435244431
 -837444.646811742 425700.262167505 -842030.392109351
 -683069.897968462 770388.341226842 -729017.660355402
 -516424.328765355 999812.973945178 -570288.839719931
 -370686.635576581 1130974.12276762 -418375.886917343
 -256553.602168348 1198929.58061279 -297149.021309254
 -173160.670274082 1231661.72701785 -211126.036737765
 -117094.280098795 1246213.21185016 -157451.551587148
 -86894.1086342534 1251608.43815363 -132193.654712470
 -598661.147788026 -1090715.37527677 -208552.706007195
 -653748.153148309 -1057424.67462085 -214513.031485536
 -738736.172893983 -993307.566038387 -243224.951491004
 -839292.922895543 -893110.795686023 -299148.670606253
 -943023.782171347 -746074.411630927 -381613.088727009
 -1034270.39171754 -537811.220511097 -482279.253988552
 -1090105.63962873 -258633.640979816 -579937.725210312
 -1083868.31060656 78633.2783161465 -640777.436964727
 -1002671.69236796 426221.471980938 -636030.003274470
 -863434.189443542 724024.829277264 -567290.823131273
 -701382.448092233 940436.061542707 -463888.032371111
 -546125.375622760 1079734.44126863 -357029.468473077
 -412946.127285896 1162175.26169515 -265280.206540822
 -307213.522437181 1207830.50877307 -195741.525046877
 -230892.997705637 1231205.78901850 -149566.572524679
 -187395.114928964 1241166.83374074 -126243.386526597
 -711322.692119922 -1021179.84738447 -206787.760493845
 -771276.801497527 -977165.651236117 -204520.943756365
 -860119.083055115 -896500.657568030 -219160.135205907
 -959457.703221105 -778640.181690378 -254381.237723641
 -1054855.26919125 -619602.511812857 -308094.984272065
 -1131732.37149980 -414540.281490097 -372676.300883908
 -1173299.63772660 -163357.017590706 -433856.976241550
 -1163368.54918234 120830.315572769 -472782.280263244
 -1095248.05786259 408259.410288584 -474663.435054765
 -978780.812928930 664057.439813546 -438822.592615073
 -835363.136611452 866445.703931431 -378139.792997772
 -686456.928862352 1012308.13515534 -309125.468433363
 -547350.168463089 1110067.95328878 -244348.855294318
 -427788.326931086 1171354.14090832 -190987.054109424
 -335485.615568146 1206536.11462651 -152543.229177150
 -280146.109396795 1223037.87100848 -131323.853080213
 -814471.839901292 -942693.527380999 -198781.202231819
 -874924.979569742 -889039.898871056 -188848.535231766
 -960119.971279550 -795667.796870299 -191394.432240530
 -1049568.12802273 -667590.207635618 -210426.923721401
 -1129276.81394236 -506796.873224546 -243803.686807603
 -1187901.37311661 -314555.679904763 -285472.385540657
 -1214999.98327147 -94598.1414937176 -326152.821841553
 -1202053.86775003 143171.104225868 -355130.912285711
 -1145957.21107119 381744.743155581 -364146.196445851
 -1051638.82284661 601838.880916567 -351276.498812335
 -930366.012286099 789221.534454996 -321088.591597890
 -795380.923157487 937989.549879014 -281236.950477465
 -658974.056094415 1048873.02919461 -239098.291381496
 -532390.233405152 1126041.91424835 -200348.889813926
 -427777.566988014 1174702.76179794 -169201.671165121
 -361579.232210762 1199306.33630169 -149913.980200173
 -900467.366778831 -863868.684759274 -185577.066949646
 -957964.850316477 -803164.484204908 -169645.476771259
 -1034781.79534337 -702777.636272370 -163950.178103947
 -1110981.90260115 -572093.941552587 -173139.149387183
 -1174591.84400467 -416825.029023018 -195295.484066125
 -1217610.29703728 -241056.830442077 -225535.363003147
 -1234060.14593680 -49134.9061464727 -257353.352663943
 -1219714.67042597 152436.853440299 -283916.465496170
 -1173053.10471175 354399.716032397 -299827.760091063
 -1096103.21501639 546347.228398811 -302674.542984095
 -994029.867349222 719346.150732603 -293249.329347619
 -873958.629082201 867419.610651579 -274461.226093552
 -744362.732334093 987404.585865386 -250011.474622831
 -615650.194222480 1078202.72696118 -223613.838673385
 -502028.286488853 1140139.23163447 -198996.389344106
 -425457.362860654 1173745.35661657 -181265.830005711
 -957772.382441547 -803043.319838228 -171297.754843409
 -1010579.24119080 -739678.909985682 -152164.839288114
 -1078908.61413946 -637979.637991405 -143134.952974348
 -1144567.32967926 -509258.418177836 -148899.033794222
 -1197150.31025351 -360985.435349769 -167541.281612066
 -1230599.80609815 -198202.187947224 -194652.102077244
 -1241115.52687612 -24945.0451503738 -224854.229643116
 -1226298.06750523 154347.995805986 -252822.421360450
 -1185183.31090495 334171.295718198 -274261.728262180
 -1118466.04481791 508345.523508349 -286649.553003949
 -1028442.97938841 670907.465790907 -289374.569393478
 -918911.369284128 816633.960706102 -283302.489471564
 -795606.549214910 941039.360796217 -270193.580970282
 -667461.500189721 1040368.11716017 -252346.502809204
 -548714.461492890 1111895.51265413 -232702.040401738
 -463074.195367629 1153423.35770820 -216162.620257787
 479141.161020962 -1147516.57042716 -212553.285859173
 568327.493872485 -1103329.54331768 -226312.194700073
 690064.959019850 -1027154.71253053 -245587.010605628
 818767.306564082 -922546.557052811 -264721.322697580
 940006.291037472 -793457.302797170 -279934.121476409
 1045387.64706677 -644585.747436310 -288484.509950059
 1130064.12370307 -480957.997348947 -288416.213178545
 1191241.51983093 -307869.291902420 -278764.365465455
 1227517.92686468 -130884.978151933 -260035.175772373
 1238762.05797056 44571.8328384148 -234587.609154683
 1226033.95870780 213888.554502660 -206499.029699880
 1191379.96936363 373439.276303923 -180848.849683021
 1137929.72863272 519799.498032507 -162707.853092489
 1070953.82847154 648292.964184949 -155960.125639205
 1000367.57141841 751484.937294892 -161507.095795424
 945237.778251599 817265.341148787 -173644.279035881
 439942.824151360 -1167803.38133406 -185027.038406314
 518815.601163858 -1132235.99238377 -201050.890221056
 635039.052616425 -1066444.59504270 -225767.044262906
 764618.852799216 -970888.105558518 -253542.358094177
 892796.310981504 -846238.355158686 -279901.454578378
 1009328.13970392 -694551.741575176 -300672.605329567
 1106386.79458560 -519768.148828569 -311927.496622003
 1177838.62206870 -328226.844365356 -310665.012385073
 1219579.29500257 -128611.114579557 -296032.017401145
 1230303.40383005 69473.7664406877 -270326.397563576
 1211648.49377073 257762.480771934 -238779.944652743
 1167413.30424595 430583.164886908 -208071.492772265
 1102844.86358909 584146.872279726 -184540.156551176
 1025153.43301830 714691.417741764 -172702.191925923
 945845.910753646 816569.876041741 -173604.670359804
 885907.568634835 879581.942321941 -181804.338495069
 374692.376747716 -1194341.34543622 -157174.439104157
 442414.360543175 -1168300.49160801 -175763.835337656
 549294.378819657 -1116504.19077960 -207950.735241940
 677082.275759283 -1034961.29912339 -248925.957040248
 812729.172038630 -919104.863906570 -293712.398409809
 944629.425643533 -765709.275139595 -336026.762464715
 1060751.68509464 -575212.059446947 -368084.745886932
 1148888.05539288 -354443.399718965 -382067.459344788
 1199280.29610813 -117663.710980568 -373405.213413041
 1208133.10567883 116831.094428254 -343968.494569600
 1178692.67489570 333307.989242669 -301892.022705443
 1118840.91076038 522732.777265795 -257866.032853936
 1038149.99340729 681794.169787611 -221248.123497150
 947190.595173453 809428.142419567 -198003.761563069
 859585.496181684 903703.035443224 -189691.932890531
 796914.444735262 959006.983443193 -191787.393742211
 292816.602319564 -1219170.93778658 -139391.867702440
 349365.950415603 -1201503.22758100 -160881.502111310
 443760.433939115 -1163630.74620530 -201468.594760601
 564748.269567951 -1098130.30492123 -258299.547720412
 703447.741209693 -994861.896808361 -327048.180830905
 849167.374001708 -843056.088933389 -399650.638385997
 986366.205934312 -635984.706209719 -462768.400149622
 1094795.40700329 -378623.380506263 -499616.636489889
 1155565.58590479 -93146.9725841391 -497535.173721307
 1160784.93448392 187215.442262569 -457250.636929621
 1117125.67285579 434618.216461421 -393302.260208783
 1039572.43689600 636755.977783715 -324623.480545956
 943754.535878674 793820.319606522 -265943.804415861
 843482.589121090 910696.658970325 -225206.900668752
 752865.253406901 991480.934096137 -204227.565366110
 691191.537174245 1036446.31823503 -198954.063227449
 200604.849315200 -1238328.68578773 -133600.865661122
 245207.577028671 -1227357.74720129 -158163.318982838
 323566.504902730 -1201568.89032826 -207572.516531683
 430891.748394730 -1151707.85522889 -281870.091156122
 563770.964650757 -1063046.61872846 -379003.452155393
 715177.110311113 -916207.930662089 -490544.757996549
 868809.926472245 -693403.255361266 -596582.490554865
 996604.730453733 -393847.821595085 -665741.943684640
 1067835.69532828 -49940.2053854334 -669912.184235950
 1069024.25206317 281773.561003867 -607733.691462735
 1012311.26089807 556696.050210169 -506818.359630264
 921900.353499674 762223.748214753 -400829.298821311
 819089.672056357 907354.070765898 -312009.824066673
 718790.080931221 1006277.53098605 -249591.228023867
 633087.772995976 1069967.40352531 -214287.325792375
 576953.805585639 1103694.38600224 -201326.698294923
 101434.166698568 -1249891.20464711 -137958.389708292
 132699.171673708 -1243616.42364382 -165404.206716206
 190838.705945998 -1226898.03421454 -223273.896531409
 276073.920722385 -1189970.97654099 -315121.716493823
 390107.986405886 -1115054.93786683 -442738.834303145
 531330.335114321 -974579.326336889 -599527.015724056
 686837.775824344 -737065.539316181 -759300.791104665
 825121.192502874 -391825.832491078 -870170.653144693
 904990.224053802 16268.3737676748 -878793.186876729
 906907.708404324 398358.979873427 -781266.895823683
 848060.998043764 691053.388824328 -628320.927799146
 759696.393294241 887935.035073733 -475375.845435256
 665188.390101309 1012378.75047957 -352367.850648731
 577617.595617917 1089201.29655740 -267484.354176465
 505569.291179689 1135016.07692067 -218374.970787927
 459399.305385815 1158080.56986854 -198371.123964517
 -3154.55224443572 -1252712.12398529 -149170.419786751
 13152.1912010394 -1248768.53834002 -178755.666868725
 46722.2794419527 -1236979.37496883 -243410.117752765
 100873.528023354 -1207785.70455075 -350182.315581359
 180493.395915339 -1141744.64297893 -505361.984303159
 288987.471283969 -1004831.46198900 -705938.669685186
 420719.728084473 -752386.705978504 -921118.117282630
 550161.635488850 -362618.582703510 -1075815.67623515
 635315.700642267 105291.011641858 -1084821.27297717
 651943.451767305 526297.506294338 -943149.034609613
 614793.072092567 822412.934976465 -732950.116862897
 552895.672016245 1000563.80890582 -533598.979658451
 486267.885819157 1100378.36119338 -379816.319235090
 424784.886486569 1155366.75694431 -276106.660693878
 374236.456370482 1185274.05732632 -215921.084360504
 341626.665302930 1199418.36178338 -190358.204156850
 -112380.760004011 -1245846.83232877 -163663.270394550
 -112362.419745165 -1241489.53153584 -193979.021120558
 -106796.791406180 -1229414.22562214 -262077.351372102
 -90998.8947797971 -1200316.75103155 -377502.753977866
 -59392.3489633067 -1133913.59737592 -549783.533301582
 -5732.29548433314 -992438.284178253 -778834.272361431
 73479.5257134744 -723281.784553165 -1031025.53331790
 169924.621926952 -299151.667165862 -1213747.64008579
 257059.301422305 206707.744500959 -1217678.88001499
 308481.320473482 643390.096326141 -1040402.75364271
 322265.278246710 929381.991500096 -789901.028756666
 312196.436295227 1086041.77225878 -560888.656501920
 290837.871717587 1164414.78974249 -388717.070274373
 265823.504032787 1202405.57529350 -274058.621695781
 242250.363902993 1220613.06296918 -207287.101906579
 225522.970481315 1228382.75147233 -178226.363340288
 -225522.946536568 -1228382.71161846 -178226.668322405
 -242250.324660446 -1220613.01467656 -207287.432139708
 -265823.436359317 -1202405.50208044 -274059.008550656
 -290837.765051213 -1164414.65773176 -388717.545524248
 -312196.272133235 -1086041.51607983 -560889.243911919
 -322265.030701790 -929381.498192359 -789901.710166180
 -308480.954717967 -643389.258549907 -1040403.38017417
 -257058.813207905 -206706.602235976 -1217679.17698512
 -169924.077921819 299152.802049913 -1213747.43653161
 -73479.0310982594 723282.610012668 -1031024.98949399
 5732.68326563591 992438.764211477 -778833.657819130
 59392.6304271899 1133913.84280416 -549782.996705964
 90999.0919626569 1200316.87298892 -377502.318667095
 106796.928765670 1229414.28918084 -262076.997241558
 112362.514023237 1241489.56987163 -193978.721155945
 112380.829898375 1245846.86279185 -163662.990507968
 -341626.692238505 -1199418.30188739 -190358.533212232
 -374236.475683635 -1185273.98697217 -215921.437087500
 -424784.890681361 -1155366.65775912 -276107.069279849
 -486267.869568009 -1100378.19916983 -379816.809444370
 -552895.627198838 -1000563.52143517 -533599.565139080
 -614792.964717351 -822412.424506442 -732950.779705186
 -651943.229624320 -526296.689051899 -943149.644202326
 -635315.314583905 -105289.944228588 -1084821.60266951
 -550161.111699544 362619.633005064 -1075815.59007655
 -420719.182275884 752387.486762129 -921117.728820715
 -288986.998194851 1004831.93779940 -705938.186084008
 -180493.024935973 1141744.89912963 -505361.538089209
 -100873.258109328 1207785.83563913 -350181.941206064
 -46722.0837301216 1236979.44357672 -243409.806662569
 -13152.0499133288 1248768.57832194 -178755.397954380
 3154.66294620102 1252712.15350566 -149170.169537587
 -459399.383165227 -1158080.47868552 -198371.476159970
 -505569.367334441 -1135015.97147921 -218375.342516275
 -577617.666348816 -1089201.15673882 -267484.770780539
 -665188.452706061 -1012378.54416917 -352368.325210107
 -759696.434230919 -887934.708024654 -475376.390895627
 -848060.989566455 -691052.867913840 -628321.512159639
 -906907.588573272 -398358.221276868 -781267.421724660
 -904989.937336021 -16267.4324740772 -878793.499566422
 -825120.743056105 391826.752992749 -870170.664833431
 -686837.259746090 737066.255503774 -759300.562716162
 -531329.847361462 974579.797040121 -599526.682828243
 -390107.581937739 1115055.21363172 -442738.496164915
 -276073.607125231 1189971.13032274 -315121.410517006
 -190838.468716133 1226898.11929906 -223273.631755893
 -132698.990873811 1243616.47455866 -165403.968955758
 -101434.017214032 1249891.24152197 -137958.165533785
 -576953.928065170 -1103694.25289010 -201327.077032583
 -633087.897367266 -1069967.25222687 -214287.713805834
 -718790.201414041 -1006277.34173451 -249591.644054519
 -819089.783719297 -907353.815870980 -312010.272186669
 -921900.444259276 -762223.385163781 -400829.780459199
 -1012311.29786276 -556695.536342554 -506818.850236106
 -1069024.18871245 -281772.880017023 -607734.118635413
 -1067835.48394551 49941.0025809764 -669912.461749315
 -996604.373128412 393848.600262366 -665742.017940624
 -868809.484347270 693403.893818609 -596582.392351950
 -715176.662817127 916208.386450761 -490544.559115686
 -563770.564025306 1063046.91475521 -379003.217779174
 -430891.421382541 1151708.03472051 -281869.857661486
 -323566.238744378 1201569.00058802 -207572.293164732
 -245207.364032587 1227357.81653433 -158163.111170824
 -200604.666730632 1238328.73711659 -133600.664055536
 -691191.701682924 -1036446.13116032 -198954.466264066
 -752865.410344258 -991480.731977375 -204227.968074245
 -843482.735850887 -910696.420992398 -225207.313451615
 -943754.666802795 -793820.023174672 -265944.224629644
 -1039572.53728202 -636755.596100832 -324623.907749037
 -1117125.72066658 -434617.724413441 -393302.668144789
 -1160784.89243323 -187214.845096996 -457250.988181578
 -1155565.42725410 93147.6396059633 -497535.417322056
 -1094795.13104213 378624.032368138 -499616.747195974
 -986365.849144859 635985.269128236 -462768.387005399
 -849166.987816284 843056.524808982 -399650.539470392
 -703447.372688142 994862.206927038 -327048.030119991
 -564747.942486900 1098130.51383823 -258299.374666587
 -443760.156213156 1163630.88339534 -201468.414113035
 -349365.713333833 1201503.32068332 -160881.321640027
 -292816.393065760 1219171.00857883 -139391.688101511
 -796914.639407275 -959006.734615127 -191787.829072020
 -859585.676840700 -903702.774501109 -189692.357379701
 -947190.751335875 -809427.858291970 -198004.176025683
 -1038150.12148946 -681793.843620329 -221248.527614950
 -1118841.00181516 -522732.390858193 -257866.421086359
 -1178692.71254649 -333307.531263011 -301892.381341613
 -1208133.06881392 -116830.573313750 -343968.801050898
 -1199280.17042670 117664.269431722 -373405.441095021
 -1148887.84283972 354443.945755307 -382067.591940815
 -1060751.40362649 575212.551220497 -368084.788522676
 -944629.106529521 765709.682035070 -336026.732350186
 -812728.844111394 919105.180589243 -293712.314829195
 -677081.962023041 1034961.53377396 -248925.834798712
 -549294.091084312 1116504.35923777 -207950.590818778
 -442414.103243721 1168300.61287168 -175763.676946260
 -374692.147077048 1194341.43898710 -157174.275745015
 -885907.778002597 -879581.634014709 -181804.809885410
 -945846.097378727 -816569.564347812 -173605.119663014
 -1025153.58596191 -714691.095934031 -172702.615790852
 -1102844.97972590 -584146.526566922 -184540.556821897
 -1167413.37910627 -430582.783045754 -208071.862939743
 -1211648.51786539 -257762.058049889 -238780.278715481
 -1230303.36688115 -69473.3070461911 -270326.683788222
 -1219579.18976500 128611.594714399 -296032.242359033
 -1177838.45062657 328227.316805299 -310665.163234238
 -1106386.56664594 519768.585199027 -311927.577980153
 -1009327.87050760 694552.123650290 -300672.626403577
 -892796.019430799 846238.674909843 -279901.417814037
 -764618.554482403 970888.361777302 -253542.276604082
 -635038.761733433 1066444.79302265 -225766.927272111
 -518815.329903196 1132236.14135840 -201050.751250084
 -439942.572794637 1167803.50047048 -185026.884129542
 -945237.993426510 -817264.985535254 -173644.781436236
 -1000367.75522654 -751484.591386406 -161507.566791094
 -1070953.97287889 -648292.621388778 -155960.558946001
 -1137929.83209190 -519799.145898599 -162708.254484311
 -1191380.03048293 -373438.904002527 -180849.215820362
 -1226033.97293595 -213888.159296835 -206499.354571498
 -1238762.01943814 -44571.4126317377 -234587.892467834
 -1227517.83275396 130885.411242864 -260035.402039347
 -1191241.37081446 307869.720253579 -278764.529181946
 -1130063.92415542 480958.402904226 -288416.318742929
 -1045387.40820092 644586.111709105 -288484.561607106
 -940006.024376264 793457.620819730 -279934.115495734
 -818767.021344997 922546.826126487 -264721.267148559
 -690064.670171590 1027154.93004684 -245586.912477856
 -568327.213314005 1103329.71502839 -226312.062120118
 -479140.890277053 1147516.71145814 -212553.134786940
 507155.600105044 -1136275.22947036 -207897.164706801
 598138.388772603 -1088688.71743946 -220310.633686834
 721242.002817817 -1006953.89120405 -239589.785423573
 849001.146049186 -896086.195395058 -260338.271002425
 966549.100634537 -761519.418492005 -278245.291498564
 1066060.33122724 -609037.794188131 -290065.107093355
 1143724.72421334 -444183.367168686 -293503.530596769
 1197867.73594574 -272183.274045309 -287364.895958375
 1228002.65750955 -98028.2617117444 -271936.323381447
 1234487.33912367 73753.5572116882 -249300.728560783
 1218349.44004329 239495.185474956 -223195.271006072
 1181158.43040761 396336.379572044 -198322.130443656
 1125327.64042494 541319.681556634 -179332.470495502
 1055485.12771273 669869.678626919 -169632.513842331
 981499.430326180 774180.824841734 -169859.794052951
 923633.349579352 841155.908155546 -175805.587621094
 465860.644356106 -1157444.44976661 -186669.860083349
 546460.959162139 -1118920.14306968 -202355.045559720
 664411.765681696 -1047939.29418105 -227880.829062060
 793781.594035460 -946054.439837973 -257761.922619179
 918979.780255264 -815273.411238800 -286975.363625504
 1029933.41155344 -658930.649319634 -310800.576048452
 1119701.01841710 -481895.610842421 -324954.889985473
 1183442.09125200 -290809.846461768 -326257.384242747
 1218324.30072743 -93879.0041664403 -313722.906005757
 1223808.95087649 100364.018998313 -289427.273013507