# OOMMF OVF 2.0
#
# Segment count: 1
#
# Begin: Segment
# Begin: Header
#
# Title: Oxs_MinDriver::Magnetization
# Desc: Oxs vector field output
# Desc:  MIF source file: C:/Users/grl31/Documents/GitHub/phd-work/Skyrmions/stdprob3/drive-95/stdprob3.mif
# Desc:  Iteration: 1352, State id: 2759
# Desc:  Stage: 0, Stage iteration: 1352
# Desc:  Stage simulation time: -1 s
# Desc:  Total simulation time: -2 s
# meshunit: m
# meshtype: rectangular
# xbase: 3.1249999999999999e-09
# ybase: 3.1249999999999999e-09
# zbase: 3.1249999999999999e-09
# xnodes: 16
# ynodes: 16
# znodes: 16
# xstepsize: 6.2499999999999997e-09
# ystepsize: 6.2499999999999997e-09
# zstepsize: 6.2499999999999997e-09
# xmin: 0
# ymin: 0
# zmin: 0
# xmax: 9.9999999999999995e-08
# ymax: 9.9999999999999995e-08
# zmax: 9.9999999999999995e-08
# valuedim: 3
# valuelabels: Magnetization_x Magnetization_y Magnetization_z
# valueunits: A/m A/m A/m
#
# End: Header
#
# Begin: Data Text
 457097.299357031 -1151505.65532835 -238004.654547546
 541269.858374207 -1110932.22377476 -253783.304244773
 658700.829262382 -1040797.15044607 -272770.856345275
 786210.122661217 -942968.131429021 -290231.247547967
 909654.874433798 -819827.284358730 -303250.167615410
 1019941.55628969 -674889.771289229 -309503.552938390
 1111064.83022400 -512569.286283113 -307176.009345613
 1178966.32549419 -338177.195004971 -295337.127784942
 1221167.66700985 -157876.411886766 -274543.254403425
 1236899.89540050 21890.2427732487 -247283.030045550
 1227168.43312820 195327.289414924 -217840.119496957
 1194524.98106020 357732.100149525 -191539.147603527
 1142993.25877434 504906.834652145 -173738.106461743
 1078817.60802095 631836.367006821 -168774.420071695
 1012358.00388188 731330.786359036 -178426.410093145
 961259.842625858 792705.506499496 -197855.820837400
 420717.740194129 -1171868.78575321 -203149.115140073
 496212.078829923 -1138767.33309855 -220299.715864219
 608662.598177243 -1077656.74039929 -244407.901613393
 736566.264868164 -987850.153056756 -270502.575741633
 865878.483963183 -868817.520541837 -294889.806416071
 986163.882492355 -721479.027148839 -313844.294469284
 1088814.12804826 -548912.582539856 -323617.370069784
 1166542.63892728 -357122.044069903 -321234.413042676
 1214058.84093531 -155154.913615137 -305839.033556634
 1229273.07561692 46405.3011386636 -279792.216668888
 1213728.80020124 238071.915594377 -248462.458907231
 1171776.99867853 413117.419483426 -218682.633069585
 1109583.32321061 567080.134278551 -196962.943414433
 1035277.61891631 695949.641117381 -188158.921442806
 960701.326881525 794307.198234926 -194109.418316612
 905129.169486544 853318.168555616 -210092.171859027
 358174.510851098 -1197455.23223943 -171351.736139293
 423712.388144606 -1172947.11687309 -190295.307537682
 527435.049876341 -1124466.19438467 -221218.165544680
 653129.677890176 -1047577.15850261 -259909.891619432
 788777.113410107 -937064.017870148 -302144.208437676
 923205.066805124 -788753.972631191 -342211.931707259
 1044180.13901814 -601943.587248510 -372694.494149587
 1138538.65672771 -382564.749717171 -385905.908648028
 1195098.34206167 -144811.245569410 -377252.020375011
 1208945.38625684 92112.7208540412 -348591.065037700
 1183127.55166542 311175.812779133 -308104.269607533
 1126140.98823614 502335.278245866 -266486.723427523
 1048472.52466278 661767.837610862 -233062.491727136
 961459.499298516 788275.396798215 -213932.140947120
 878845.045159976 880087.060638335 -211252.415876574
 820418.622444824 932528.109520257 -221029.499884673
 277664.034989920 -1221215.39517844 -151937.727938918
 332709.190336662 -1204535.22397866 -173057.562039758
 424477.208716470 -1169010.37251505 -211620.601906955
 543240.152118207 -1107282.24561206 -265265.143955710
 681250.604316813 -1009111.15132381 -330366.053508617
 828786.872630041 -863115.543405301 -399616.452873554
 970756.560848167 -661231.083104977 -460385.257393210
 1086167.71309350 -406832.946453441 -496262.111824189
 1154216.14684409 -121467.273149736 -494550.522026730
 1165287.23335567 160678.530279896 -455891.987870307
 1125762.49734740 410280.209041530 -394814.362142436
 1051410.65748691 614137.072806704 -330031.386456377
 958787.616940242 772114.572292814 -275889.151243920
 862324.900138720 888967.658535778 -240170.147181362
 776185.972687865 968720.645407527 -225089.044341947
 718183.744953448 1012031.06467935 -227056.520557261
 185237.577018408 -1239336.30638138 -145883.483178371
 228743.479085666 -1229045.76859608 -169329.118555562
 304897.241990228 -1204969.63821789 -215952.017167596
 410069.283904503 -1158246.04080450 -286109.633318598
 542044.941162427 -1074513.75549435 -378360.809192241
 695262.197125406 -934176.451984996 -485256.905900401
 854590.018798837 -717911.835496345 -588071.362287457
 991351.145494617 -422360.810200672 -656036.342935433
 1071835.37287984 -78698.5692526727 -660700.309943973
 1079767.34306835 254932.238829353 -600550.971498268
 1027137.12691128 532015.974074338 -503485.607310796
 939458.925745535 739421.907833695 -402767.426651630
 839116.245030661 886121.102689287 -319722.926317959
 741611.900162274 986089.256056212 -263038.399377662
 659196.352374662 1049957.12024559 -233665.670521968
 605843.199253987 1082974.75623126 -227308.438476190
 84484.8260429755 -1249656.77302265 -150896.304547351
 114937.036443568 -1243865.92004687 -176455.324426544
 171190.301244180 -1228395.76496821 -230840.109788214
 254384.734918753 -1194104.50562560 -317729.865143181
 367519.143230630 -1123987.87385789 -439466.005168090
 510977.867373541 -990663.845037912 -590792.853805835
 673930.368249322 -760766.361660860 -747396.703655820
 824416.390775434 -419471.614656277 -857863.981081743
 916393.641325055 -9992.07001716885 -866990.359574275
 925750.954454111 375053.726947979 -770629.160588079
 870103.363191658 669606.630672559 -621366.661835717
 783076.122454647 867903.092558204 -474431.701394685
 689498.276634966 993950.956265976 -358054.540502304
 603122.619595218 1072269.00956103 -279341.561151504
 532851.445086252 1118893.33794588 -236000.988745325
 488470.855870428 1141809.18316268 -221850.046494348
 -22641.1184859595 -1250727.78772617 -163452.781200760
 -6893.50099265930 -1247100.59111992 -190373.386247561
 25055.3499354629 -1236102.40989243 -250943.205958446
 77215.5463502310 -1208949.88750603 -352175.183424312
 155789.468949187 -1147318.53379297 -500938.373753325
 266540.716555838 -1017764.72737675 -696175.579178547
 406856.456892110 -773242.510173814 -910007.293852226
 551478.675396301 -385699.706341644 -1067078.45917255
 651949.431163862 87189.0507362395 -1076526.56240140
 677149.323077687 512325.014612350 -933028.029898802
 642506.027673447 808640.031385840 -724456.164969660
 580514.016847856 986310.573293047 -530795.968496806
 513188.489131841 1086642.92577797 -383919.467334257
 451301.815575153 1142714.51755485 -286495.433727854
 401118.542791510 1173430.21285890 -231764.710639245
 369405.530398352 1187628.34610537 -211253.157508003
 -134865.444451023 -1241380.83940131 -179817.558595569
 -135094.799048872 -1237166.00800454 -206685.981205785
 -130809.946491341 -1225330.95041136 -270189.286948749
 -116921.868690169 -1197373.95753559 -379702.927769204
 -86749.3824248257 -1134279.76399313 -545374.543376891
 -31900.2989094132 -999075.038440870 -769662.828394888
 54461.8430496585 -736402.099540131 -1022885.76408291
 165880.314105530 -311341.071182738 -1211238.98950867
 270585.209270408 203010.238628014 -1215368.22340196
 333515.250133795 643364.710093916 -1032665.89885254
 351298.464384815 926208.166797435 -781202.439574762
 341084.603300773 1079300.10666652 -557065.529412611
 318188.967823978 1156243.75991184 -391670.243111473
 291698.423307203 1194267.43823015 -283172.644763304
 267456.694400995 1212837.97605322 -221450.652250525
 250944.411498567 1220619.51742243 -196632.466658052
 -250944.444388592 -1220619.49728914 -196632.549663247
 -267456.719860003 -1212837.95420393 -221450.741166311
 -291698.440800811 -1194267.40950506 -283172.747889695
 -318188.976678445 -1156243.71532634 -391670.367538350
 -341084.602340692 -1079300.02967797 -557065.679163755
 -351298.442809359 -926208.020062518 -781202.623248632
 -333515.202607868 -643364.456081139 -1032666.07245508
 -270585.127920953 -203009.886549322 -1215368.30032307
 -165880.217984049 311341.414725571 -1211238.91436710
 -54461.7610950153 736402.338583512 -1022885.59635285
 31900.3541225616 999075.172099444 -769662.652608450
 86749.4132162016 1134279.83177443 -545374.397506315
 116921.883605350 1197373.99393631 -379702.808388545
 130809.946489528 1225330.97180444 -270189.189930208
 135094.790445079 1237166.02279143 -206685.898319151
 134865.429165555 1241380.85202615 -179817.482903592
 -369405.577319432 -1187628.31688517 -211253.239730750
 -401118.585269499 -1173430.18092505 -231764.798803784
 -451301.854509606 -1142714.47646392 -286495.536291473
 -513188.522369322 -1086642.86727475 -383919.588492497
 -580514.046137476 -986310.478682613 -530796.112266212
 -642506.040910807 -808639.870482879 -724456.332830010
 -677149.306457727 -512324.757666348 -933028.183049628
 -651949.366475237 -87188.7202657192 -1076526.62834224
 -551478.568947156 385700.015268614 -1067078.40252380
 -406856.346734532 773242.726861366 -910007.158981061
 -266540.627930631 1017764.85277387 -696175.429787258
 -155789.408516777 1147318.59835462 -500938.244679460
 -77215.5079106544 1208949.92095985 -352175.077011741
 -25055.3279141012 1236102.42693465 -250943.124210148
 6893.51234954704 1247100.60143857 -190373.318240768
 22641.1249780974 1250727.79559769 -163452.720069222
 -488470.917795067 -1141809.14050689 -221850.129687422
 -532851.504071188 -1118893.29127769 -236001.076823420
 -603122.677637672 -1072268.95085285 -279341.661187588
 -689498.334167640 -993950.875373119 -358054.654269448
 -783076.172501196 -867902.976329078 -474431.831414122
 -870103.397853728 -669606.454249924 -621366.803417431
 -925750.953416688 -375053.478104896 -770629.282942497
 -916393.588028100 9992.36428252996 -866990.412516762
 -824416.286488883 419471.882888655 -857863.950144008
 -673930.251261951 760766.556122488 -747396.611203507
 -510977.760034454 990663.966673726 -590792.742680040
 -367519.058625818 1123987.93977642 -439465.907327188
 -254384.674251256 1194104.54017046 -317729.783887693
 -171190.258629971 1228395.78287022 -230840.046126798
 -114937.006200041 1243865.93006155 -176455.273530849
 -84484.7959639184 1249656.78040984 -150896.260210809
 -605843.271962665 -1082974.69671637 -227308.528235563
 -659196.426195458 -1049957.05351332 -233665.762121293
 -741611.972579830 -986089.175223841 -263038.498230909
 -839116.316231953 -886120.997035064 -319723.032273020
 -939458.985115271 -739421.770863872 -402767.539627605
 -1027137.16730585 -532015.788799654 -503485.720677102
 -1079767.34498838 -254932.007584786 -600551.066208772
 -1071835.32607994 78698.8219023891 -660700.355771996
 -991351.055040221 422361.036277916 -656036.334072923
 -854589.908940935 717912.010431085 -588071.308375162
 -695262.090166460 934176.568287661 -485256.835251816
 -542044.848806029 1074513.82533778 -378360.743153641
 -410069.207951524 1158246.08157597 -286109.577125414
 -304897.181738036 1204969.66142086 -215951.972768146
 -228743.430469636 1229045.78190857 -169329.087603694
 -185237.532004740 1239336.31594564 -145883.459083084
 -718183.828684414 -1012030.98270320 -227056.621096901
 -776186.055469414 -968720.556366745 -225089.142088839
 -862324.980384141 -888967.554327610 -240170.244779059
 -958787.689507446 -772114.447407072 -275889.248563984
 -1051410.71470755 -614136.921904028 -330031.484969787
 -1125762.53127541 -410280.026680270 -394814.454905801
 -1165287.23290492 -160678.322039509 -455892.062416444
 -1154216.10595295 121467.486642999 -494550.565024835
 -1086167.63675382 406833.139803132 -496262.120401598
 -970756.463176331 661231.240054106 -460385.237922376
 -828786.774635747 863115.652811332 -399616.419807666
 -681250.510609339 1009111.22708617 -330366.015325602
 -543240.070634605 1107282.29329230 -265265.111798012
 -424477.137148939 1169010.40265361 -211620.578971967
 -332709.125797073 1204535.24328947 -173057.551710036
 -277663.975754969 1221215.40913701 -151937.723996420
 -820418.709594465 -932528.006498968 -221029.611051028
 -878845.128121877 -880086.953055179 -211252.518937517
 -961459.574739701 -788275.277597774 -213932.241114934
 -1048472.58899975 -661767.701811088 -233062.587891698
 -1126141.03464638 -502335.126150651 -266486.814007286
 -1183127.57511508 -311175.641272359 -308104.352776787
 -1208945.38061663 -92112.5347020792 -348591.133787728
 -1195098.30525303 144811.429796330 -377252.066264220
 -1138538.59246970 382564.918442578 -385905.930963868
 -1044180.05687188 601943.726135754 -372694.499980600
 -923204.978953890 788754.077755035 -342211.926411844
 -788777.024720432 937064.095181664 -302144.200198360
 -653129.589122636 1047577.21526049 -259909.885919198
 -527434.964924761 1124466.23392544 -221218.167100519
 -423712.307377120 1172947.14467451 -190295.316011799
 -358174.434571036 1197455.25275475 -171351.752219584
 -905129.255717993 -853318.047212327 -210092.293204882
 -960701.405757630 -794307.075619101 -194109.529688005
 -1035277.68475059 -695949.515273570 -188159.024675637
 -1109583.37684341 -567079.995586840 -196963.040586220
 -1171777.03472355 -413117.269608496 -218682.723059341
 -1213728.81439480 -238071.758512897 -248462.540084663
 -1229273.06588311 -46405.1351045203 -279792.286972339
 -1214058.80596839 155155.074811013 -305839.090585132
 -1166542.58287536 357122.194765571 -321234.449060590
 -1088814.05710816 548912.709261764 -323617.393805590
 -986163.803395585 721479.127977969 -313844.311217293
 -865878.398377629 868817.600845131 -294889.821125884
 -736566.171141243 987850.218747591 -270502.591058975
 -608662.499930467 1077656.79078866 -244407.924103218
 -496211.980317144 1138767.37034649 -220299.745217337
 -420717.644298018 1171868.81437005 -203149.148662314
 -961259.929104220 -792705.371440495 -197855.941803350
 -1012358.07762673 -731330.655587694 -178426.527681670
 -1078817.66936680 -631836.233580823 -168774.527448119
 -1142993.30501872 -504906.694091301 -173738.210716952
 -1194525.01062655 -357731.952102600 -191539.239717216
 -1227168.44145362 -195327.140573569 -217840.206056186
 -1236899.88251982 -21890.0895472119 -247283.108038171
 -1221167.63290321 157876.560639491 -274543.320569232
 -1178966.27355089 338177.336061498 -295337.173621649
 -1111064.76422690 512569.408488214 -307176.044141513
 -1019941.48315442 674889.867984544 -309503.583099647
 -909654.788996987 819827.368593922 -303250.196171686
 -786210.026368818 942968.202817468 -290231.276452574
 -658700.719748353 1040797.21102480 -272770.889658259
 -541269.745299987 1110932.26939140 -253783.345723689
 -457097.185793910 1151505.69034113 -238004.703252344
 473446.763332236 -1145290.42132311 -236024.244590920
 560932.610468254 -1102192.14454772 -249151.588254066
 681187.171141270 -1027551.44168544 -267715.340392887
 809199.105320213 -924540.093856720 -286307.271509696
 930596.342724509 -796742.813445006 -301232.081708534
 1036771.11799163 -648619.136014647 -309755.219831656
 1122567.09531703 -485143.206042682 -309884.844839277
 1184910.65421411 -311723.461584132 -300607.145535251
 1222215.97936412 -134145.376302660 -282387.231868882
 1234284.07476513 41890.7779178689 -257560.510221549
 1222226.36865494 211473.089097890 -230198.321607511
 1188254.48149065 370701.358843666 -205380.672624763
 1135742.61180364 515978.154618772 -188161.352590307
 1070185.14041699 642647.825647858 -182364.931770592
 1001501.19199484 743574.960313337 -188788.431178644
 948212.870037378 807343.958865852 -201587.489932404
 435547.142386306 -1165572.61415633 -208059.123344437
 513117.596624992 -1130598.73520377 -223620.801600354
 627968.058720199 -1065739.19393360 -247801.369366482
 756617.315122791 -971269.517196583 -275163.940842637
 884456.699491337 -847640.943798572 -301314.798906575
 1001189.12403288 -696722.807955133 -322097.962912444
 1098826.65993812 -522368.655821867 -333557.176122857
 1171055.13237335 -330949.277517249 -332643.778796179
 1213631.90213674 -131271.446776778 -318456.974010671
 1225185.72475888 66869.4735163417 -293253.890473179
 1207381.88330415 254967.204607390 -262240.621114592
 1164154.47833273 427115.113985790 -232091.492523329
 1100956.22277522 579398.892745088 -209145.283325362
 1025153.06786629 708130.546992659 -197893.271182112
 948151.300824977 807978.322395709 -199322.783949738
 890253.791232669 869352.624242355 -207902.940906915
 371698.484977797 -1192137.63151933 -179436.715026919
 438546.466050608 -1166238.34880224 -197773.966478143
 544314.059762096 -1114677.35340347 -229708.582934328
 671028.402324736 -1033483.79940771 -270520.887463927
 805777.692030188 -918088.143356034 -315255.298091130
 937036.031863867 -765257.001171672 -357623.584325070
 1052833.03248070 -575434.061866659 -389830.318318232
 1141027.38220678 -355448.418941733 -404057.378901969
 1191916.16912980 -119504.932626948 -395732.040355257
 1201693.55574991 114170.536231520 -366670.311921629
 1173545.01316045 329801.587212326 -324919.137751874
 1115339.78513527 518202.963687147 -281126.809534824
 1036705.38880105 675963.885569509 -244671.602675064
 948216.863015531 802088.956910659 -221557.028355932
 863258.377327207 894879.802243652 -213364.815350880
 802684.232511883 949091.437036571 -215575.735971419
 290776.525605838 -1217041.48565889 -160650.133086634
 346826.236050093 -1199207.95848263 -182102.348195208
 440456.371746623 -1161002.38451756 -222757.892455694
 560421.250306719 -1095092.40457544 -279732.155042624
 697820.217214669 -991502.208573669 -348596.824080430
 842023.044592478 -839729.454852100 -421190.059175145
 977731.866723025 -633378.482736253 -484170.967035391
 1085173.96901148 -377602.434328343 -520925.416435157
 1145984.69742984 -94274.8537985408 -519019.032518898
 1152429.84856151 184048.134954752 -479146.281508197
 1110869.16413769 429923.728882578 -415553.508504834
 1035887.73346103 630950.144523145 -346969.666844439
 942885.104595513 787076.310962777 -288145.781111034
 845521.755132392 903080.381467620 -247160.306532200
 757635.434324963 983096.262117509 -225963.977183886
 697925.920343647 1027513.26031998 -220602.222332490
 198886.600149958 -1236260.65141313 -153795.815831700
 243299.115836104 -1224944.14473394 -178512.782271621
 321262.180487074 -1198425.98242305 -228287.553232717
 427783.500183015 -1147491.36645078 -303008.699233281
 559217.225238029 -1057619.06042132 -400334.171598633
 708411.308440259 -909970.068778896 -511524.508620502
 859327.749198741 -687667.833454391 -616618.359447822
 984860.664927425 -390670.102207144 -684818.058201684
 1055623.49494761 -50785.9812482377 -688933.416189262
 1058612.79374941 277321.569159652 -627679.162556678
 1005123.11548569 550225.736424685 -527758.081521451
 918289.328084588 755032.717491538 -422160.794440048
 818869.697320386 900012.179585573 -333136.498040967
 721605.776087664 998904.005135331 -270231.980639726
 638441.964750174 1062528.35164978 -234467.035007664
 583997.070174645 1096146.57026673 -221268.048843179
 99439.8715295725 -1247779.40978734 -157186.791365889
 130766.570492510 -1241067.06624498 -184938.022165994
 188868.575627651 -1223369.24431960 -243404.568798981
 273656.387421954 -1184844.58932318 -335864.424572933
 386438.363580470 -1107843.76208249 -463569.866241446
 525229.949962040 -965521.258826169 -619234.712638558
 677198.508189398 -728075.486491455 -776439.113772123
 812110.510131913 -386610.922971270 -884623.052204463
 891068.164037664 14925.4326970486 -892930.114519780
 895423.798769510 391642.241642199 -797735.548961939
 840784.838143567 682293.279224377 -647384.096184094
 756614.543566909 879414.343724620 -495695.748855473
 665613.263385191 1004795.25212062 -372686.082166384
 580841.949922019 1082443.10687088 -287208.949229415
 510941.809118671 1128758.25593446 -237471.468335236
 466125.928306173 1152013.37593599 -217120.315825630
 -5884.95689758960 -1250365.07745378 -167636.425890273
 10701.1832554990 -1245944.67713302 -197627.875361208
 44594.0479221449 -1233036.52953537 -263024.178812970
 98801.2141903658 -1201886.73535272 -370480.804329517
 177805.655848788 -1133055.93166074 -525470.108945837
 284522.901058990 -993337.945469499 -723792.702216846
 413100.114683474 -740546.563996288 -934070.935593623
 539074.669641159 -356022.883248574 -1083603.08142493
 623072.627667216 102452.191387209 -1092169.16274485
 642081.729520372 516588.112754658 -955205.321015154
 609009.556104312 811275.671686972 -749992.383975621
 550925.173541884 991010.496220389 -553108.561186516
 487271.506517360 1092880.84007606 -399659.078778279
 428035.567643037 1149399.10042458 -295324.722457549
 379151.359820747 1180190.24692436 -234402.769458149
 347567.939797919 1194699.75195125 -208418.955066953
 -116134.555611828 -1243007.76580883 -181642.203385514
 -115620.900345403 -1238168.66861655 -212413.715137655
 -109336.609476483 -1224931.46643853 -281314.484653540
 -92816.5085805026 -1193732.71546848 -397412.544686403
 -60714.7503499103 -1124216.64855958 -569210.046564849
 -7111.68008893885 -979503.525464850 -795029.369600391
 71103.5849721677 -710036.767948869 -1040356.42896259
 165729.825953277 -292585.878983740 -1215926.21450800
 251663.522811090 201735.117195042 -1219638.40735505
 303858.267804562 631020.204401890 -1049301.23684401
 319712.539113700 916593.287900312 -805723.319650437
 311825.042063014 1076035.27785079 -580054.010314501
 292313.926657438 1157273.14306756 -408437.108421351
 268799.248302242 1197233.03451987 -293137.264921152
 246396.801792377 1216534.46350829 -225570.268612783
 230408.255508026 1224755.28270807 -196050.922444614
 -230408.282324298 -1224755.26399866 -196051.007808903
 -246396.821951933 -1216534.44214443 -225570.361810396
 -268799.258803363 -1197233.00594158 -293137.372011513
 -292313.932413813 -1157273.09488393 -408437.240825921
 -311825.038457506 -1076035.19392436 -580054.167941324
 -319712.521516869 -916593.134390189 -805723.501266438
 -303858.225484717 -631019.949284903 -1049301.40251918
 -251663.450175035 -201734.778655039 -1219638.47833936
 -165729.742692642 292586.212279753 -1215926.14565597
 -71103.5113314911 710037.010541721 -1040356.26842744
 7111.73294219354 979503.668692569 -795029.192666099
 60714.7822604673 1124216.72486758 -569209.892449205
 92816.5259073685 1193732.75593593 -397412.419085073
 109336.617984756 1224931.48912574 -281314.382559446
 115620.898148927 1238168.68352349 -212413.629440044
 116134.545743627 1243007.77809425 -181642.125623652
 -347567.981001557 -1194699.72507233 -208419.040429506
 -379151.397487142 -1180190.21614119 -234402.863521566
 -428035.599996439 -1149399.06114318 -295324.828447947
 -487271.536422048 -1092880.77953877 -399659.207859118
 -550925.199908239 -991010.397118882 -553108.712485435
 -609009.569175884 -811275.505404983 -749992.553230395
 -642081.716541865 -516587.856483838 -955205.468333928
 -623072.570613722 -102451.870987213 -1092169.22534879
 -539074.578243258 356023.187954743 -1083603.02678119
 -413100.016855650 740546.786378445 -934070.802550520
 -284522.819738077 993338.080039752 -723792.549498948
 -177805.592935006 1133056.00498587 -525469.972125381
 -98801.1724626286 1201886.77296493 -370480.693438812
 -44594.0211978633 1233036.54927622 -263024.090800369
 -10701.1672853742 1245944.68857078 -197627.804116623
 5884.96639243426 1250365.08581323 -167636.363205590
 -466125.982689344 -1152013.33734796 -217120.403816110
 -510941.863563820 -1128758.21156475 -237471.562091203
 -580842.003559730 -1082443.05046668 -287209.053332354
 -665613.316155348 -1004795.17348429 -372686.199930055
 -756614.592431290 -879414.225039763 -495695.884829297
 -840784.872841008 -682293.103984807 -647384.235810126
 -895423.800632902 -391641.996021329 -797735.667456027
 -891068.118026529 -14925.1466318449 -892930.165216537
 -812110.420356832 386611.187953028 -884623.018814428
 -677198.400729070 728075.686950635 -776439.019524588
 -525229.848947369 965521.386682793 -619234.598962149
 -386438.281791291 1107843.83604889 -463569.757656424
 -273656.325127826 1184844.62891857 -335864.335646557
 -188868.529633088 1223369.26517524 -243404.499666279
 -130766.536299095 1241067.07826430 -184937.965685292
 -99439.8437383033 1247779.41784321 -157186.744998138
 -583997.136068481 -1096146.51689370 -221268.139334540
 -638442.033310191 -1062528.28923243 -234467.131177294
 -721605.843559699 -998903.929114414 -270232.081476708
 -818869.763935917 -900012.078705271 -333136.606837356
 -918289.385685041 -755032.582151128 -422160.911202521
 -1005123.15467100 -550225.556034637 -527758.194962001
 -1058612.79883021 -277321.341652853 -627679.254504785
 -1055623.45486920 50786.2277403222 -688933.459429054
 -984860.584508169 390670.329777151 -684818.044032861
 -859327.647811487 687668.012933541 -616618.300582918
 -708411.207491887 909970.189648082 -511524.433405359
 -559217.134411106 1057619.13739725 -400334.095114414
 -427783.423494527 1147491.41139558 -303008.637295415
 -321262.118403843 1198426.00852788 -228287.503559800
 -243299.065175997 1224944.16018647 -178512.745283060
 -198886.557000843 1236260.66175024 -153795.788538417
 -697925.997771964 -1027513.18638436 -220602.321744875
 -757635.511476918 -983096.180028480 -225964.075643611
 -845521.829288935 -903080.285137231 -247160.404821051
 -942885.172413437 -787076.193031104 -288145.881326629
 -1035887.78869942 -630949.998699375 -346969.767103176
 -1110869.19757730 -429923.552511793 -415553.601582949
 -1152429.85046568 -184047.934270468 -479146.354014500
 -1145984.66106169 94275.0653469963 -519019.074393320
 -1085173.89969122 377602.626782134 -520925.421337007
 -977731.777056944 633378.638911196 -484170.943802935
 -842022.949956459 839729.569133060 -421190.020524206
 -697820.125991416 991502.286681590 -348596.784531147
 -560421.164932247 1095092.45721935 -279732.119993778
 -440456.296654582 1161002.41776837 -222757.867632719
 -346826.170311428 1199207.98036776 -182102.329277640
 -290776.465548256 1217041.50120421 -160650.124023678
 -802684.313686782 -949091.343272556 -215575.846525599
 -863258.455748489 -894879.701765436 -213364.919482774
 -948216.933521028 -802088.845598871 -221557.129582420
 -1036705.45020784 -675963.757030538 -244671.697606163
 -1115339.82991582 -518202.818119027 -281126.900199539
 -1173545.03702377 -329801.421211417 -324919.220057469
 -1201693.55293387 -114170.357374752 -366670.376841435
 -1191916.13598256 119505.113776095 -395732.085488051
 -1141027.32303367 355448.584860046 -404057.400044294
 -1052832.95558680 575434.200644462 -389830.321137279
 -937035.946250252 765257.108940305 -357623.578040059
 -805777.603899453 918088.223931480 -315255.288696878
 -671028.312942150 1033483.85954369 -270520.879437513
 -544313.972461886 1114677.39680230 -229708.579203669
 -438546.383810647 1166238.37875300 -197773.972223675
 -371698.407366908 1192137.65409057 -179436.725837502
 -890253.870853076 -869352.514572534 -207903.058554894
 -948151.373515338 -807978.209849325 -199322.894391515
 -1025153.13223206 -708130.424564259 -197893.375837049
 -1100956.27391290 -579398.761083316 -209145.378877696
 -1164154.51351426 -427114.970352668 -232091.580381475
 -1207381.89817035 -254967.053467518 -262240.699616992
 -1225185.71705553 -66869.3172274535 -293253.958294874
 -1213631.87169137 131271.602451346 -318457.025866464
 -1171055.08139873 330949.422432778 -332643.814072323
 -1098826.59449380 522368.779335070 -333557.198285542
 -1001189.04931005 696722.909266292 -322097.976032307
 -884456.615644920 847641.025904173 -301314.814048377
 -756617.222986779 971269.584592889 -275163.956294217
 -627967.960436808 1065739.24775432 -247801.386961109
 -513117.496850903 1130598.77525849 -223620.828029102
 -435547.045238041 1165572.64467781 -208059.155727764
 -948212.949661282 -807343.834758386 -201587.612444884
 -1001501.26128119 -743574.837876923 -188788.545858694
 -1070185.19795113 -642647.698950383 -182365.040616408
 -1135742.65567298 -515978.021799440 -188161.452013349
 -1188254.50970208 -370701.219268979 -205380.761329059
 -1222226.37810069 -211472.948308146 -230198.400793037
 -1234284.06460003 -41890.6344949879 -257560.582261692
 -1222215.95027872 134145.517358029 -282387.290747975
 -1184910.60794974 311723.594414536 -300607.190154206
 -1122567.03714722 485143.322043665 -309884.873954655
 -1036771.04971271 648619.232192450 -309755.246971933
 -930596.263462602 796742.895045528 -301232.110743306
 -809199.011538381 924540.166863524 -286307.300815449
 -681187.063793329 1027551.50425212 -267715.373388932
 -560932.497655359 1102192.19264783 -249151.629453328
 -473446.645607347 1145290.46056528 -236024.290318326
 501815.859137883 -1133676.61102329 -233468.661827233
 590943.354954946 -1087273.86480944 -245297.625459141
 712406.640453514 -1007194.88476715 -263789.070386907
 839391.557559090 -898011.959542142 -283805.857122012
 957072.248921804 -764757.959327688 -301176.700472769
 1057364.25945899 -612979.622173300 -312707.909298709
 1136113.46065587 -448190.835391331 -316102.215282853
 1191352.50179514 -275758.815621600 -310138.232071406
 1222413.44403328 -100913.749732910 -295078.324992681
 1229596.94356584 71528.6680368080 -272991.642621874
 1213995.41632767 237597.304248994 -247612.764347817
 1177359.50825314 394154.142812765 -223643.759019605
 1122369.86446709 538066.186820046 -205718.489339221
 1053910.47046335 664785.490438235 -197186.213690195
 981878.254514654 766833.474724506 -198572.269645467
 925953.799302802 831835.799194919 -205446.332781607
 461878.697631265 -1154785.54506370 -211394.996405597
 540996.506952207 -1116911.45370125 -226673.807431348
 657356.992078340 -1046958.33725933 -251613.703775945
 785632.728926123 -946261.251207971 -280927.554044404
 910397.631708952 -816577.892984192 -309719.433983699
 1021502.88974379 -661040.093840007 -333327.573866954
 1111816.91218138 -484430.285264671 -347476.450172977
 1176295.38178775 -293430.440736519 -348965.875341601
 1211955.57933470 -96383.5564452611 -336783.780318188
 1218193.86329729 97972.7828501548 -312976.798124664