# OOMMF OVF 2.0
#
# Segment count: 1
#
# Begin: Segment
# Begin: Header
#
# Title: Oxs_MinDriver::Magnetization
# Desc: Oxs vector field output
# Desc:  MIF source file: C:/Users/grl31/Documents/GitHub/phd-work/Skyrmions/stdprob3/drive-221/stdprob3.mif
# Desc:  Iteration: 2187, State id: 4444
# Desc:  Stage: 0, Stage iteration: 2187
# Desc:  Stage simulation time: -1 s
# Desc:  Total simulation time: -2 s
# meshunit: m
# meshtype: rectangular
# xbase: 3.1249999999999999e-09
# ybase: 3.1249999999999999e-09
# zbase: 3.1249999999999999e-09
# xnodes: 16
# ynodes: 16
# znodes: 16
# xstepsize: 6.2499999999999997e-09
# ystepsize: 6.2499999999999997e-09
# zstepsize: 6.2499999999999997e-09
# xmin: 0
# ymin: 0
# zmin: 0
# xmax: 9.9999999999999995e-08
# ymax: 9.9999999999999995e-08
# zmax: 9.9999999999999995e-08
# valuedim: 3
# valuelabels: Magnetization_x Magnetization_y Magnetization_z
# valueunits: A/m A/m A/m
#
# End: Header
#
# Begin: Data Text
 410074.677675749 1120369.10753878 410074.691392728
 388410.708771524 1126156.16750057 415281.637724309
 351605.938521896 1135883.45918677 421534.651079822
 303357.967767838 1147537.88079192 427411.027534760
 245892.961232450 1159365.25852786 432386.724881708
 181094.549429302 1169807.89102213 436238.115240195
 110885.341270671 1177565.49069108 438854.630992667
 37338.3896956833 1181693.59796785 440176.687360520
 -37338.5336856426 1181693.58746352 440176.703346238
 -110885.481518456 1177565.45891164 438854.680829066
 -181094.688096252 1169807.84077993 436238.192404182
 -245893.096830483 1159365.19362458 432386.821794924
 -303358.100981427 1147537.80353361 427411.140413021
 -351606.069696189 1135883.37184060 421534.777032429
 -388410.837214476 1126156.07675212 415281.763682884
 -410074.805726769 1120369.01280574 410074.822162747
 374843.352040593 1144785.72204834 374843.357876581
 357962.632962050 1150007.89328262 375358.534882988
 325896.830724123 1158704.22489687 377816.365247804
 282023.243491390 1169189.56414156 380799.270156877
 228904.198735549 1179848.62550534 383548.588334459
 168656.254208823 1189248.47993654 385736.376044348
 103273.765306219 1196217.25806531 387231.496427063
 34773.6356174314 1199919.53784514 387986.247027411
 -34773.7592482416 1199919.52850573 387986.264830719
 -103273.887357626 1196217.23063138 387231.548623801
 -168656.375877033 1189248.43710785 385736.454890543
 -228904.318309208 1179848.56869282 383548.691735306
 -282023.366690247 1169189.49455988 380799.392555270
 -325896.953836453 1158704.14627638 377816.500170400
 -357962.758742195 1150007.80785304 375358.676667637
 -374843.480408611 1144785.63197519 374843.504595284
 324454.381895174 1175163.02888297 324454.373579041
 310731.603382598 1179719.11959088 321337.984760526
 283900.636359949 1186902.21836403 319707.653389646
 246284.560919841 1195424.97713396 319143.337727323
 200144.096482709 1204033.65818791 319052.850657568
 147526.289506276 1211591.62630027 319109.943283700
 90336.1152191559 1217174.59363297 319178.360514115
 30415.0636948736 1220133.33499378 319216.227119391
 -30415.1466644896 1220133.32795097 319216.246133604
 -90336.2025900765 1217174.57298625 319178.414521239
 -147526.382445990 1211591.59261948 319110.028195846
 -200144.195187355 1204033.61184939 319052.963610556
 -246284.667271218 1195424.91910673 319143.473009751
 -283900.746388887 1186902.15107976 319707.805474042
 -310731.718507090 1179719.04509266 321338.146939098
 -324454.502422286 1175162.94910263 324454.542013636
 266530.965270708 1203940.17033555 266530.939523379
 255240.025737735 1207472.68854134 261556.239855031
 233384.380950968 1212817.34776878 257206.614608155
 202627.596001450 1219013.67036119 253962.910146685
 164735.636409804 1225196.35694341 251605.818589716
 121431.943892025 1230584.40117697 249931.481613414
 74347.1092092298 1234544.97966002 248838.565072668
 25028.5931071652 1236637.71162587 248294.523964513
 -25028.6257401118 1236637.70726711 248294.542383981
 -74347.1521160194 1234544.96524465 248838.623771086
 -121431.998836773 1230584.37729381 249931.572511097
 -164735.705280924 1225196.32228281 251605.942277273
 -202627.675056542 1219013.62603024 253963.059858615
 -233384.468644253 1212817.29499528 257206.783882013
 -255240.121922151 1207472.62873624 261556.422083111
 -266531.070444356 1203940.10526160 266531.128293559
 205836.800352438 1227522.65719728 205836.752323205
 196874.712030864 1229870.18790624 200522.067566629
 179868.907301278 1233331.21995337 195168.411874263
 156095.966027090 1237260.75965942 190707.348877856
 126864.018185919 1241129.09565775 187225.852169121
 93485.3887352737 1244471.69972729 184662.128195872
 57220.3991837792 1246915.57159295 182966.702312851
 19259.7020127755 1248202.93974044 182120.608445766
 -19259.6835446500 1248202.93726388 182120.627372469
 -57220.3921969619 1246915.56241167 182966.767068159
 -93485.3980807924 1244471.68430058 184662.227428111
 -126864.044971840 1241129.07277555 187225.985706121
 -156096.006310271 1237260.72957998 190707.511053313
 -179868.961777885 1233331.18293855 195168.595576503
 -196874.779474381 1229870.14457924 200522.267088974
 -205836.880083134 1227522.60927179 205836.958399542
 145291.744578207 1244720.88046077 145291.670860212
 138765.795148473 1245985.15382256 140763.921050570
 126605.170200785 1247819.84213017 135890.409461510
 109762.310730172 1249870.00685572 131630.665213720
 89144.6642953184 1251864.69923054 128208.558868234
 65657.0248331525 1253574.89421604 125652.578963778
 40173.3642063337 1254819.12235728 123953.627997757
 13519.4597719481 1255472.75222197 123104.929042788
 -13519.3871642327 1255472.75082072 123104.951307016
 -40173.3031777462 1254819.11750047 123953.696944011
 -65656.9806952559 1253574.88593596 125652.684633384
 -89144.6384471998 1251864.68646505 128208.701486465
 -109762.304586216 1249869.98957337 131630.834437603
 -126605.179749503 1247819.81989507 135890.604739936
 -138765.823095507 1245985.12678986 140764.132782573
 -145291.786976252 1244720.85013501 145291.888264220
 86197.0742223059 1255663.00291273 86196.9746026343
 82230.2537890490 1256130.87427279 83203.6235954402
 74931.5400371282 1256803.63264751 79870.6716550914
 64899.8715140351 1257547.55592919 76886.8140381934
 52672.5818617999 1258265.29201458 74454.5831391569
 38776.1123568757 1258877.07761989 72624.7029092277
 23718.6690534053 1259320.52121757 71405.0453230832
 7980.83652001714 1259552.99585753 70795.3938735704
 -7980.70436387163 1259552.99543203 70795.4163418859
 -23718.5485657371 1259320.51951558 71405.1153622781
 -38776.0071449165 1258877.07470225 72624.8096586803
 -52672.4953982604 1258265.28697869 74454.7294125765
 -64899.8087762364 1257547.54856983 76886.9873631698
 -74931.4947993122 1256803.62274405 79870.8699309752
 -82230.2316492219 1256130.86154667 83203.8376031997
 -86197.0667106395 1255662.98827323 86197.1953729824
 28540.2408948859 1260920.43656932 28540.1158102125
 27209.7070073808 1260973.00469535 27498.0761707730
 24777.1759617506 1261048.27276709 26320.6424968211
 21447.7493972247 1261131.07216811 25255.5692245009
 17399.7392616648 1261210.61043337 24381.8810364984
 12805.6403048023 1261278.19773822 23722.4451849632
 7831.65295181853 1261327.08996927 23282.3590010412
 2635.01924533908 1261352.69343124 23062.3148509111
 -2634.82265205490 1261352.69344481 23062.3365701472
 -7831.46871159431 1261327.08990730 23282.4243314337
 -12805.4680564637 1261278.19755205 23722.5480642702
 -17399.5872063453 1261210.60974451 24382.0251800779
 -21447.6225676344 1261131.07091345 25255.7395823410
 -24777.0680080488 1261048.27086964 26320.8350278791
 -27209.6230880822 1260973.00195857 27498.2847090282
 -28540.1735583621 1260920.43317975 28540.3328993646
 -28540.1129100683 1260920.43618681 -28540.2606944136
 -27209.5627577867 1260973.00494252 -27498.2075727586
 -24777.0118992997 1261048.27368158 -26320.7531235986
 -21447.5724019189 1261131.07350405 -25255.6528233977
 -17399.5391662774 1261210.61220719 -24381.9320752225
 -12805.4240555810 1261278.19984037 -23722.4501504843
 -7831.42850027815 1261327.09206340 -23282.3210500946
 -2634.78701236195 1261352.69540322 -23062.2335296465
 2635.04956109079 1261352.69522836 -23062.2130965339
 7831.68237287738 1261327.09158410 -23282.2616204588
 12805.6679982858 1261278.19913658 -23722.3558875317
 17399.7663781848 1261210.61164352 -24381.7990869748
 21447.7748797414 1261131.07329113 -25255.4915065398
 24777.1879502364 1261048.27401797 -26320.5712804701
 27209.7159717870 1260973.00591657 -27498.0112995224
 28540.2475642542 1260920.43777330 -28540.0559478267
 -86196.9417840698 1255663.00252152 -86197.1127397396
 -82230.1072316960 1256130.87541344 -83203.7512175811
 -74931.3718434646 1256803.63554155 -79870.7839083932
 -64899.6899384472 1257547.56020396 -76886.8973877182
 -52672.3781926067 1258265.29752922 -74454.6340277162
 -38775.8939559751 1258877.08370657 -72624.7140118879
 -23718.4417772748 1259320.52723636 -71405.0146680939
 -7980.60227686142 1259553.00143178 -70795.3211056164
 7980.93676503987 1259553.00034474 -70795.3027387610
 23718.7693391524 1259320.52409542 -71404.9612563344
 38776.2152756067 1258877.07871380 -72624.6289962937
 52672.6829796728 1258265.29167677 -74454.5173125026
 64899.9718146447 1257547.55443882 -76886.7537509573
 74931.6266324464 1256803.63091027 -79870.6177510321
 82230.3360797954 1256130.87227727 -83203.5723939404
 86197.1524537494 1255663.00080110 -86196.9271319837
 -145291.606654729 1244720.88168869 -145291.798263919
 -138765.642899622 1245985.15694757 -140764.043476829
 -126604.996073839 1247819.84789333 -135890.518769913
 -109762.121938471 1249870.01474401 -131630.747738951
 -89144.4540198617 1251864.70890978 -128208.610563785
 -65656.8010049221 1253574.90419395 -125652.596375418
 -40173.1293369526 1254819.13170429 -123953.609496129
 -13519.2165070018 1255472.76057637 -123104.870556572
 13519.6318057180 1255472.75765149 -123104.854777355
 40173.5382280524 1254819.12329734 -123953.562080634
 65657.2037977350 1253574.89025443 -125652.524972706
 89144.8420141854 1251864.69118351 -128208.513871848
 109762.483560048 1249869.99598449 -131630.624322069
 126605.332729587 1247819.82958940 -135890.373194270
 138765.948299735 1245985.14100701 -140763.883511276
 145291.892275967 1244720.86723192 -145291.636494479
 -205836.654064110 1227522.66223675 -205836.868558183
 -196874.552330036 1229870.19516117 -200522.179865558
 -179868.726202360 1233331.23013415 -195168.514440915
 -156095.766511000 1237260.77206736 -190707.431684197
 -126863.800201081 1241129.10959551 -187225.907481199
 -93485.1529931768 1244471.71380121 -184662.152693688
 -57220.1516052243 1246915.58359892 -182966.697919033
 -19259.4446490079 1248202.94979963 -182120.566719619
 19259.9433136042 1248202.94396596 -182120.553966899
 57220.6463160929 1246915.56687664 -182966.657166921
 93485.6409164057 1244471.68591152 -184662.093635780
 126864.268512498 1241129.07421718 -187225.824678487
 156096.207989553 1237260.73280115 -190707.325078527
 179869.138098885 1233331.19038212 -195168.386039219
 196874.930685814 1229870.15728638 -200522.040690751
 205837.011213481 1227522.62577617 -205836.728844071
 -266530.810213134 1203940.18050768 -266531.048632647
 -255239.856898296 1207472.70161509 -261556.344262288
 -233384.191885187 1212817.36343900 -257206.712272304
 -202627.385189702 1219013.68792921 -253962.994019537
 -164735.405316330 1225196.37490842 -251605.882414307
 -121431.692810140 1230584.41840691 -249931.518769356
 -74346.8448740285 1234544.99376450 -248838.574074131
 -25028.3182120306 1236637.72222439 -248294.498888133
 25028.9022211695 1236637.71250247 -248294.488439065
 74347.4254898019 1234544.96633379 -248838.536689750
 121432.261050804 1230584.37388639 -249931.461888405
 164735.949176177 1225196.31772634 -251605.804777638
 202627.899422371 1219013.62314463 -253962.894696113
 233384.669735173 1212817.29615866 -257206.595930094
 255240.299620514 1207472.63523380 -261556.218679882
 266531.228100526 1203940.11602745 -266530.922007166
 -324454.218739674 1175163.04445476 -324454.480333999
 -310731.426998842 1179719.13794187 -321338.087950847
 -283900.439194122 1186902.23885147 -319707.752414152
 -246284.338754107 1195424.99952502 -319143.425302828
 -200143.849350809 1204033.68008887 -319052.923035722
 -147526.021035892 1211591.64564897 -319109.993936078
 -90335.8339247832 1217174.60876890 -319178.382407616
 -30414.7740772484 1220133.34461720 -319216.217930774
 30415.4378136107 1220133.33169637 -319216.204076622
 90336.4911524736 1217174.56979898 -319178.345004594
 147526.661284126 1211591.58379362 -319109.932797127
 200144.460646199 1204033.60049676 -319052.839928438
 246284.911816971 1195424.90842815 -319143.324291457
 283900.968978089 1186902.14358836 -319707.635626059
 310731.917800644 1179719.04180766 -321337.966283654
 324454.682119525 1175162.95059780 -324454.356900838
 -374843.184567359 1144785.74220838 -374843.463780239
 -357962.451511259 1150007.91595611 -375358.638458332
 -325896.626354222 1158704.24947515 -377816.466155364
 -282023.011490419 1169189.58941165 -380799.364390541
 -228903.937955118 1179848.64974307 -383548.669411128
 -168655.971371839 1189248.50017817 -385736.437303428
 -103273.469226821 1196217.27293865 -387231.529444638
 -34773.3335163884 1199919.54662848 -387986.246939255
 34774.0609868571 1199919.52958067 -387986.234462429
 103274.187138644 1196217.22425356 -387231.488374727
 168656.668008584 1189248.42362672 -385736.368724228
 228904.599880673 1179848.55121038 -383548.577469919
 282023.627295506 1169189.47674072 -380799.254259763
 325897.192259764 1158704.13037575 -377816.343275857
 357962.971365101 1150007.79564588 -375358.511298356
 374843.675052210 1144785.62293678 -374843.337555256
 -410074.506461958 1120369.13147694 -410074.797204784
 -388410.523723820 1126156.19319737 -415281.741114098
 -351605.731343375 1135883.48415187 -421534.756617357
 -303357.731784983 1147537.90672508 -427411.125398303
 -245892.695592594 1159365.28250025 -432386.811670159
 -181094.256800944 1169807.91031284 -436238.184988635
 -110885.036958999 1177565.50500646 -438854.669470918
 -37338.0796162993 1181693.60558095 -440176.693225127
 37338.8432335260 1181693.58619494 -440176.680493961
 110885.789392006 1177565.44977587 -438854.627552237
 181094.987559299 1169807.82495196 -436238.110532560
 245893.386032696 1159365.17312857 -432386.712285306
 303358.369574467 1147537.78154122 -427411.008823506
 351606.316122511 1135883.35266427 -421534.623159115
 388411.058769789 1126156.05825897 -415281.606612787
 410075.006876372 1120368.99806189 -410074.661294856
 415281.621493441 1126156.16975117 388410.719599900
 394732.276209684 1131336.50208325 394732.289142027
 358367.662910879 1140951.67510416 401685.603645148
 309849.729981561 1152831.22574082 408071.979810200
 251546.195805562 1165044.69882104 413454.703738745
 185464.643647285 1175900.47587033 417624.673269763
 113643.951524161 1183995.32650459 420463.494272951
 38281.1466192926 1188311.46366648 421900.284488286
 -38281.3028589263 1188311.45268672 421900.301237097
 -113644.107894214 1183995.29353741 420463.544842038
 -185464.796298745 1175900.42368403 417624.752418397
 -251546.341240907 1165044.63027773 413454.808399048
 -309849.872370811 1152831.14395338 408072.102748862
 -358367.798000273 1140951.58443367 401685.740665114
 -394732.410037856 1131336.40615299 394732.430258138
 -415281.752754182 1126156.07138307 388410.864466251
 375358.528031991 1150007.89558014 357962.632764845
 360188.654265195 1154156.70296164 360188.657881244
 329176.896718783 1162328.97196599 363570.299273793
 285567.065527151 1172697.14315747 367127.079409138
 232151.955202743 1183443.08347015 370293.625115485
 171226.936379446 1193002.88743338 372793.344565976
 104914.307379046 1200121.35871293 374501.192771341
 35336.7004146595 1203911.22449529 375364.505590236
 -35336.8334815078 1203911.21564099 375364.521461861
 -104914.441900331 1200121.33016047 374501.246584776
 -171227.069668230 1193002.84270665 372793.426478561
 -232152.089221937 1183443.02247968 370293.736016423
 -285567.197539884 1172697.06990038 367127.210725705
 -329177.026543885 1162328.88928037 363570.446074685
 -360188.783393815 1154156.61433362 360188.812744378
 -375358.656936678 1150007.80336848 357962.793839315
 321337.991315678 1179719.12191312 310731.587787111
 309414.636113863 1183247.48247410 309414.623274635
 283966.555505728 1189774.76628021 308785.413833026
 247045.621309256 1197976.67692256 308819.969335638
 201111.631412188 1206455.42272156 309142.128503104
 148394.033649130 1213977.31673022 309495.906533176
 90921.2617803889 1219561.50128174 309762.004878991
 30620.3055407982 1222527.75056987 309899.543229926
 -30620.3974106354 1222527.74339313 309899.562464160
 -90921.3604057507 1219561.47965450 309762.061078899
 -148394.136579833 1213977.28166792 309495.994710505
 -201111.740169548 1206455.37386988 309142.248399354
 -247045.735175435 1197976.61603912 308820.114425913
 -283966.670047321 1189774.69661667 308785.576916886
 -309414.753372117 1183247.40556753 309414.800118423
 -321338.112334939 1179719.04100849 310731.769798314
 261556.263827666 1207472.69062527 255239.991313360
 251910.358404391 1210219.72793472 251910.326039120
 231471.295802614 1214993.03207369 248520.426023296
 201606.126813411 1220842.68837641 245860.795549247
 164220.450784011 1226822.03079380 243903.216916524
 121188.307364431 1232091.97260690 242512.259720496
 74243.7879089598 1235986.95933436 241606.140715207
 25000.6370309252 1238050.21355248 241155.692011742
 -25000.6820544910 1238050.20898664 241155.710784344
 -74243.8394650722 1235986.94381387 241606.204270698
 -121188.373256364 1232091.94654189 242512.359217080
 -164220.525838446 1226821.99477386 243903.347560866
 -201606.211807675 1220842.64203367 245860.955972582
 -231471.386695059 1214992.97825150 248520.604497851
 -251910.455926273 1210219.66684057 251910.522023745
 -261556.368046156 1207472.62536052 255240.193265942
 200522.113716309 1229870.18950764 196874.655022293
 192933.318400303 1231707.31969131 192933.263562450
 177186.162397132 1234768.93828968 188414.871517391
 154298.017405019 1238430.30852551 184477.434037992
 125668.065068198 1242121.62013276 181358.344555023
 92719.3392694179 1245348.52099018 179051.993320277
 56790.3126058657 1247721.46547530 177525.873903650
 19120.6974753077 1248974.84462183 176764.440283922
 -19120.6924501503 1248974.84141749 176764.463468586
 -56790.3153856274 1247721.45544792 177525.943490719
 -92719.3573051666 1245348.50383294 179052.103313307
 -125668.096281942 1242121.59622504 181358.486669854
 -154298.061633534 1238430.27732484 184477.606500673
 -177186.219290822 1234768.90045831 188415.065940473
 -192933.386233217 1231707.27605604 192933.474301767
 -200522.191982134 1229870.14191734 196874.872601527
 140763.992347624 1245985.15506090 138765.711705664
 135266.896840615 1246978.42226933 135266.817559811
 124083.353965040 1248591.78932365 131039.291135525
 107969.668109006 1250485.26886509 127195.023639999
 87889.1896170069 1252370.93057044 124064.392673937
 64820.7323371891 1254006.70986254 121716.371938865
 39691.7638636541 1255203.94202162 120154.312172858
 13361.8884396459 1255834.67470475 119374.036814906
 -13361.8269476344 1255834.67300344 119374.061596022
 -39691.7115861070 1255203.93642937 120154.387862180
 -64820.6957900009 1254006.70042916 121716.488591460
 -87889.1674485889 1252370.91732815 124064.542052894
 -107969.663424278 1250485.25082153 127195.205007180
 -124083.366921288 1248591.76656405 131039.495728969
 -135266.923734872 1246978.39529179 135267.039362072
 -140764.032471817 1245985.12506761 138765.940314863
 83203.7165685420 1256130.87538783 82230.1426822469
 79872.8901359965 1256499.14062674 79872.7860071898
 73190.2378173465 1257088.57164964 76947.6642600227
 63633.1955776655 1257771.86272636 74230.6451096485
 51769.1336220729 1258446.34484754 71987.3937771944
 38166.6763672763 1259028.05886972 70292.8354299271
 23365.0523941690 1259452.29285661 69162.3254654642
 7864.74023558210 1259675.35376981 68597.2294257958
 -7864.61693394427 1259675.35311549 68597.2555777985
 -23364.9406684127 1259452.29077403 69162.4011336071
 -38166.5794482484 1259028.05524326 70292.9530076751
 -51769.0542093861 1258446.33937030 71987.5466363288
 -63633.1364504984 1257771.85490287 74230.8283572721
 -73190.1953255486 1257088.56134992 76947.8729422647
 -79872.8666302773 1256499.12777362 79873.0117083172
 -83203.7082727741 1256130.86063320 82230.3764645567
 27498.1903491175 1260973.00520376 27209.5680573332
 26382.7071066090 1261014.41039706 26382.5786390738
 24160.3603599063 1261080.23712491 25344.4952446754
 20995.1372961486 1261156.08547628 24371.3601388602
 17074.7854204545 1261230.61474293 23563.0867455728
 12585.4849485808 1261294.69501333 22950.5733870436
 7703.59264513424 1261341.33775721 22541.4117605992
 2592.92625942711 1261365.83667817 22336.8241596652
 -2592.74060194130 1261365.83663742 22336.8480121521
 -7703.41708726743 1261341.33755245 22541.4832147744
 -12585.3237892398 1261294.69458086 22950.6855290133
 -17074.6417688013 1261230.61387677 23563.2372021765
 -20995.0155843092 1261156.08400495 24371.5411261494
 -24160.2578250649 1261080.23496554 25344.7004331055
 -26382.6240124420 1261014.40745612 26382.8023013265
 -27498.1238857612 1260973.00165985 27209.7994600437
 -27498.0724675187 1260973.00433011 -27209.7276763191
 -26382.5735557090 1261014.41007376 -26382.7276425278
 -24160.2092913279 1261080.23754406 -25344.6183987278
 -20994.9694231928 1261156.08643694 -24371.4550432201
 -17074.5957356031 1261230.61623297 -23563.1444427329
 -12585.2800924821 1261294.69680909 -22950.5870342692
 -7703.37748697246 1261341.33961152 -22541.3815296185
 -2592.70486327461 1261365.83854464 -22336.7444590788
 2592.95723757137 1261365.83841233 -22336.7226350398
 7703.62173526027 1261341.33930406 -22541.3152623920
 12585.5122028209 1261294.69637349 -22950.4836909741
 17074.8113230624 1261230.61594024 -23563.0038882980
 20995.1619532002 1261156.08654153 -24371.2837736971
 24160.3789496629 1261080.23821364 -25344.4233510701
 26382.7230913776 1261014.41145179 -26382.5122409188
 27498.2041405945 1260973.00626662 -27209.5048636167
 -83203.5931385368 1256130.87345412 -82230.2971122537
 -79872.7520502531 1256499.14020353 -79872.9307503659
 -73190.0818759695 1257088.57315173 -76947.7880467131
 -63633.0228480281 1257771.86584431 -74230.7403486114
 -51768.9394120871 1258446.34945844 -71987.4528360644
 -38166.4691721971 1259028.06408992 -70292.8544296606
 -23364.8343327795 1259452.29822254 -69162.3014186487
 -7864.51535379540 1259675.35903882 -68597.1584515106
 7864.83937997277 1259675.35806756 -68597.1391374860
 23365.1518311182 1259452.29556945 -69162.2424716500
 38166.7774649454 1259028.05997361 -70292.7607650958
 51769.2339931815 1258446.34452840 -71987.3271750736
 63633.2943220978 1257771.86135005 -74230.5837825230
 73190.3271970989 1257088.56986109 -76947.6084640964
 79872.9735538297 1256499.13878426 -79872.7315736792
 83203.7974434881 1256130.87344595 -82230.0905134444
 -140763.859477174 1245985.15401448 -138765.855885187
 -135266.751756407 1246978.42305254 -135266.955423807
 -124083.191213511 1248591.79279365 -131039.412184142
 -107969.486049885 1250485.27475434 -127195.120282303
 -87888.9894416251 1252370.93848121 -124064.454625681
 -64820.5185224478 1254006.71824904 -121716.399403339
 -39691.5381770568 1255203.95040597 -120154.299137940
 -13361.6557930008 1255834.68253007 -119373.980531893
 13362.0595978616 1255834.67998846 -119373.962071055
 39691.9362251495 1255203.94284972 -120154.246584050
 64820.9088004899 1254006.70606251 -121716.317112712
 87889.3649027109 1252370.92301239 -124064.344793529
 107969.838387364 1250485.25829744 -127194.982992020
 124083.515108324 1248591.77761431 -131039.250117104
 135267.048054870 1246978.41027555 -135266.776911937
 140764.138551873 1245985.14296271 -138765.672026238
 -200521.971593476 1229870.19141367 -196874.787871174
 -192933.163739741 1231707.32378473 -192933.392090112
 -177185.990119452 1234768.94556980 -188414.985817989
 -154297.825896082 1238430.31810838 -184477.529885566
 -125667.854819569 1242121.63175701 -181358.410627417
 -92719.1136531093 1245348.53250196 -179052.030084994
 -56790.0742955596 1247721.47630603 -177525.874016046
 -19120.4519163359 1248974.85402191 -176764.400427317
 19120.9411006646 1248974.84864261 -176764.385520796
 56790.5575075216 1247721.46094844 -177525.827376249
 92719.5887732349 1245348.50763647 -179051.956996546
 125668.313159275 1242121.59938503 -181358.314746892
 154298.255686004 1238430.28268790 -184477.408190748
 177186.390673304 1234768.90975461 -188414.843848706
 192933.532454896 1231707.29094454 -192933.233030215
 200522.321797788 1229870.16032605 -196874.625382157
 -261556.112137589 1207472.69679687 -255240.117560939
 -251910.193669786 1210219.73682714 -251910.448052962
 -231471.112844759 1214993.04470900 -248520.534656815
 -201605.923646847 1220842.70264650 -245860.891286598
 -164220.228059201 1226822.04609684 -243903.289903788
 -121188.066341221 1232091.98718494 -242512.306100297
 -74243.5325477813 1235986.97187084 -241606.155052642
 -25000.3724103060 1238050.22345710 -241155.668596288
 25000.9474881348 1238050.21472712 -241155.653796013
 74244.1022233892 1235986.94602483 -241606.112216154
 121188.624101349 1232091.94570016 -242512.238141015
 164220.763064590 1226821.99265586 -243903.198489358
 201606.428040014 1220842.64192159 -245860.779218288
 231471.581987842 1214992.98216692 -248520.403460446
 251910.628176477 1210219.67640795 -251910.303810145
 261556.523164297 1207472.63919173 -255239.968877367
 -321337.831171645 1179719.13295505 -310731.711475733
 -309414.462364072 1183247.49695075 -309414.741663486
 -283966.361557076 1189774.78407201 -308785.523639599
 -247045.406126128 1197976.69553385 -308820.069277783
 -201111.394074455 1206455.44136566 -309142.210142135
 -148393.774312222 1213977.33412482 -309495.962648159
 -90920.9880958107 1219561.51463814 -309762.032625299
 -30620.0238560125 1222527.75997380 -309899.533964565
 30620.6808106540 1222527.74677966 -309899.521102390
 90921.6393239579 1219561.47735119 -309761.988279019
 148394.407350374 1213977.27458346 -309495.892672248
 201111.997938348 1206455.36469100 -309142.116529751
 247045.974671471 1197976.60771139 -308819.955141982
 283966.888373249 1189774.69217628 -308785.393248125
 309414.947634512 1183247.40685923 -309414.600916303
 321338.290336193 1179719.04572969 -310731.567796713
 -375358.363122797 1150007.91162246 -357962.754149740
 -360188.474989816 1154156.72239042 -360188.774900704
 -329176.694541394 1162328.99363476 -363570.413050570
 -285566.839123721 1172697.16553043 -367127.184050359
 -232151.703526398 1183443.10414679 -370293.716819700
 -171226.660890112 1193002.90599930 -372793.411686166
 -104914.019293514 1200121.37196086 -374501.231022554
 -35336.4032318007 1203911.23260741 -375364.507548730
 35337.1311364974 1203911.21578409 -375364.492981505
 104914.735408648 1200121.32387185 -374501.184512380
 171227.355949258 1193002.82959159 -372793.336957662
 232152.365204050 1183443.00635389 -370293.614529300
 285567.453442833 1172697.05380732 -367127.063078671
 329177.260375095 1162328.87705162 -363570.273458678
 360188.994306208 1154156.60543880 -360188.630333632
 375358.848994447 1150007.79889411 -357962.606822629
 -415281.455062791 1126156.18972643 -388410.839628251
 -394732.093857690 1131336.52460266 -394732.406951413
 -358367.455306177 1140951.69903909 -401685.720876597
 -309849.496328120 1152831.24970323 -408072.089528116
 -251545.932413740 1165044.72115269 -413454.801059700
 -185464.358611277 1175900.49407015 -417624.748607455
 -113643.653760244 1183995.33951588 -420463.538114366
 -38280.8387715000 1188311.47020613 -421900.294001384
 38281.6097782302 1188311.45051920 -421900.279493490
 113644.410667320 1183995.28407013 -420463.489666725
 185465.092536413 1175900.40644423 -417624.669402686
 251546.627656493 1165044.60976839 -413454.691935188
 309850.138479039 1152831.12294115 -408071.960053270
 358368.042531834 1140951.56655803 -401685.573277951
 394732.628001980 1131336.39185401 -394732.253276018
 415281.952080704 1126156.06032531 -388410.683410703
 421534.637575098 1135883.46265114 351605.943520646
 401685.589853226 1140951.67822972 358367.668418912
 365768.003095811 1150641.97695391 365768.013502897
 317084.221505738 1162861.48344829 372505.298893165
 257963.313743045 1175583.95002974 378162.314508102
 190494.142196977 1186980.06009990 382543.787863342
 116846.844752594 1195517.79421375 385530.088979572
 39380.3748552577 1200081.70650493 387043.298233465
 -39380.5573502086 1200081.69524572 387043.314575914
 -116847.027960358 1195517.75942095 385530.141344210
 -190494.321396837 1186980.00456803 382543.870935350
 -257963.484842514 1175583.87669275 378162.425773504
 -317084.383534383 1162861.39565945 372505.435024153
 -365768.152153198 1150641.88130807 365768.165330479
 -401685.731545827 1140951.57777011 358367.829436952
 -421534.770474145 1135883.36239734 351606.108065797
 377816.356821221 1158704.22971775 325896.823352850
 363570.292593424 1162328.97515242 329176.892845792
 333395.139117929 1170147.33747199 333395.142044262
 290053.248481633 1180470.46055644 337502.645497583
 236305.643052449 1191384.66815442 341044.933208378
 174553.770367124 1201197.75030219 343808.634037197
 107055.348463207 1208547.36646305 345690.390811791
 36074.6451525950 1212471.84448410 346641.136089457
 -36074.7998220140 1212471.83483957 346641.153727486
 -107055.507330035 1208547.33688272 345690.445026959
 -174553.928015914 1201197.70225359 343808.721869963
 -236305.798246773 1191384.60328155 341045.052298921
 -290053.400221382 1180470.38191129 337502.790165037
 -333395.280628108 1170147.25088666 333395.304430429
 -363570.429149247 1162328.88288618 329177.067815700
 -377816.487993627 1158704.13672316 325897.001918930
 319707.657051704 1186902.22352868 283900.610644176
 308785.419775725 1189774.76976591 283966.534439099
 284471.703748091 1195701.10629847 284471.694694253
 248266.359844973 1203554.90202860 285252.245023973