# OOMMF OVF 2.0
#
# Segment count: 1
#
# Begin: Segment
# Begin: Header
#
# Title: Oxs_MinDriver::Magnetization
# Desc: Oxs vector field output
# Desc:  MIF source file: C:/Users/grl31/Documents/GitHub/phd-work/Skyrmions/stdprob3/drive-213/stdprob3.mif
# Desc:  Iteration: 943, State id: 1927
# Desc:  Stage: 0, Stage iteration: 943
# Desc:  Stage simulation time: -1 s
# Desc:  Total simulation time: -2 s
# meshunit: m
# meshtype: rectangular
# xbase: 3.1249999999999999e-09
# ybase: 3.1249999999999999e-09
# zbase: 3.1249999999999999e-09
# xnodes: 16
# ynodes: 16
# znodes: 16
# xstepsize: 6.2499999999999997e-09
# ystepsize: 6.2499999999999997e-09
# zstepsize: 6.2499999999999997e-09
# xmin: 0
# ymin: 0
# zmin: 0
# xmax: 9.9999999999999995e-08
# ymax: 9.9999999999999995e-08
# zmax: 9.9999999999999995e-08
# valuedim: 3
# valuelabels: Magnetization_x Magnetization_y Magnetization_z
# valueunits: A/m A/m A/m
#
# End: Header
#
# Begin: Data Text
 479659.026343874 -1157528.22222390 -146986.612046764
 570706.480507510 -1112717.89514324 -166440.469398790
 694128.897181142 -1036388.50837186 -188768.018297054
 824324.571018482 -931989.997715918 -208406.038040249
 946826.308541024 -803541.324077411 -222240.214348020
 1053406.96403780 -655663.923172535 -228008.813175320
 1139391.69624470 -493053.143403343 -224130.745833007
 1201959.94399109 -320548.080092843 -209977.742412571
 1239464.87455403 -143331.652177348 -186366.019300265
 1251446.43335744 33414.8184761324 -155931.732697667
 1238664.10942099 205270.813622976 -122981.901212406
 1202883.80568115 368791.025197686 -92807.1154741447
 1146975.55058870 520557.013190388 -70830.1721655918
 1076163.30189571 655447.292370548 -61731.8839498803
 1000884.54961630 764955.784748081 -67986.7386979745
 941399.114911334 835459.926713993 -85579.4847972324
 437652.876983547 -1177875.57568751 -112332.178763694
 518103.563613194 -1142643.60798096 -132225.993777748
 635838.363862710 -1077969.35359888 -158874.411599116
 767251.996562420 -983888.436689729 -186647.659610763
 897592.963468235 -860867.206468701 -211622.200343068
 1016622.21776998 -710702.039454836 -230068.051606756
 1116444.68671483 -536887.853070946 -238436.837862865
 1190607.12366828 -345275.132815142 -234070.909445799
 1234457.91699973 -144300.305768172 -216426.670793744
 1246190.20626162 56383.3323958927 -188096.572442227
 1227167.55180154 248445.543829547 -154544.629397505
 1181031.51753780 426253.746719546 -122563.162935940
 1112906.22377668 585886.174990440 -98623.3134363462
 1030160.24300848 722926.268052030 -87732.0671363696
 945152.265883681 830509.351028873 -92145.7707520996
 880331.622485428 897212.839153002 -107586.182338333
 369235.871692636 -1203462.35065561 -83022.1207197038
 437699.356891153 -1178664.13785963 -103535.279106432
 545296.209704796 -1129526.97664490 -135537.019415221
 674781.843147032 -1051540.27303806 -174590.805190539
 813554.117560521 -939583.334136418 -216476.989383095
 950135.104051984 -789598.438599835 -255591.511454864
 1072123.25750984 -600865.042886236 -284714.509399780
 1166157.16437559 -379200.613241629 -296367.666609589
 1220816.13365336 -138844.689147800 -286146.030945873
 1231153.11312137 100860.794975861 -256200.201029121
 1200358.84924545 323205.454938512 -215003.018246423
 1136800.41742745 518862.774786448 -173250.289456164
 1050521.55286777 684358.576144682 -140025.844530437
 952740.294951851 818009.512652266 -121226.228615829
 858319.357121006 916885.467382798 -118988.872641795
 790387.547976622 974737.676089875 -129319.054022858
 284935.921115580 -1227100.91720190 -67707.3908758875
 341148.482873317 -1211283.69608297 -89212.9539684040
 435036.244588423 -1177339.68504208 -127138.361002348
 557011.190182418 -1117640.54316296 -179353.230271773
 699486.833198348 -1021443.25387517 -242737.059828111
 852663.381178304 -876397.243844382 -310551.864104062
 1000681.03120389 -672975.396834693 -370528.028579305
 1120635.74699330 -413396.708309499 -405990.289340267
 1189229.88807912 -120043.581701324 -403573.094631683
 1195846.70187913 170121.931282814 -364086.013217170
 1148105.35580672 426084.128534045 -303077.281065829
 1063368.45984671 635096.240207266 -239686.702169260
 958981.344545765 797895.878650999 -187793.446541408
 849937.966905681 919399.260670675 -154466.445577698
 751676.258622537 1003263.61640537 -141401.376016664
 684746.601835486 1049637.79140814 -144679.055296700
 191581.830724141 -1245172.39172422 -66268.7554065585
 234854.241549621 -1236310.71029595 -89043.4936007927
 311390.203496239 -1215232.44769310 -133400.412890532
 418560.192668536 -1173125.78962370 -200331.419782345
 555284.480889608 -1095140.39844285 -289613.680444397
 716943.674786208 -959805.619335983 -395366.122972205
 887934.712257615 -743840.927536790 -499822.020531455
 1035663.68173775 -439636.783646439 -570674.747744613
 1119651.40527769 -79872.7601996891 -575804.223462046
 1120644.66431799 268772.453597393 -513289.718815602
 1054607.17245146 554438.123083150 -414670.363547868
 951954.909639274 765477.395446351 -315239.017244547
 837237.704277845 913838.426653205 -235545.722581653
 726560.760831413 1015026.50830252 -182702.159763448
 632854.587542874 1080073.12826899 -156481.754642921
 571767.230139336 1114245.78752418 -151947.327855291
 92590.8659627225 -1255890.75271493 -75596.1619683825
 121744.181181704 -1251718.68777985 -99639.9113310092
 176827.781158396 -1240018.59937300 -150450.124421975
 260398.878983295 -1212265.76857076 -232709.177074589
 377311.207630541 -1151541.15731955 -350911.166129687
 530213.930321887 -1028245.94601262 -503123.139519728
 709236.246358583 -801834.470332142 -667528.920689819
 877310.535347142 -447260.819015408 -788564.147841843
 975813.577134098 -9647.64700811941 -799527.495779174
 974684.823001534 398711.442090243 -694671.226319142
 900101.364176012 701616.757574875 -537681.030553948
 794633.303181739 899134.157363877 -389442.051472337
 685790.944349423 1022178.51701871 -276389.744586720
 587091.082727831 1098139.46787695 -202393.677251394
 507147.588059529 1143581.34397603 -163010.627120881
 456452.200331335 1166356.23599100 -151042.876351554
 -10709.7154464493 -1258184.60289789 -91685.5383617484
 2892.38833541365 -1256172.03432934 -116502.726052092
 32242.5017821661 -1249282.17401845 -172638.065551926
 82726.9524135757 -1229892.92707421 -268456.831159415
 162423.464012250 -1180558.12303662 -414065.897399750
 279963.154374873 -1065799.79398992 -614199.366852868
 435470.572960402 -828068.272602474 -846296.488775445
 599991.737469690 -420812.612082876 -1026876.86282195
 709301.610908183 95555.1470663710 -1038898.39231329
 723279.708656256 551211.033352153 -874403.963094819
 668766.781051229 851783.869153444 -647120.285365341
 589015.649536499 1021893.07073599 -447598.645554055
 508193.970004317 1114140.15470821 -303282.105368882
 436085.755249514 1164832.21757234 -211055.798055685
 378171.673643026 1192756.33910811 -160835.107145206
 341483.036937322 1206052.38839349 -142745.938132655
 -117821.162825994 -1251180.47451100 -110521.602918705
 -120994.110905568 -1248477.21379928 -134961.115396672
 -120806.500125324 -1240749.34251967 -193639.586560810
 -111211.530562552 -1220921.73020676 -297542.526536645
 -84519.1438113086 -1171307.74176922 -460916.607771790
 -30534.0353227684 -1052980.95729862 -694152.870175112
 60697.7553569262 -797515.681343811 -975619.778102259
 184009.699792037 -345111.368635932 -1199411.52426498
 298585.926897761 225169.988017888 -1204862.79371287
 358651.586324779 697865.039414118 -987877.956687568
 365699.157578051 978181.910513598 -707794.961136080
 344496.778215275 1117158.47629094 -474160.668518127
 312537.129385850 1182079.11603285 -310739.339500491
 278718.328939718 1212731.90149253 -207718.220515945
 248664.539111458 1227587.27059812 -150814.027772303
 228298.727352539 1234063.58372419 -128515.342795995
 -228298.701924852 -1234063.56716338 -128515.546990882
 -248664.491292403 -1227587.25379401 -150814.243398081
 -278718.244817560 -1212731.87785592 -207718.471390534
 -312536.994945115 -1182079.06909646 -310739.653268909
 -344496.571342565 -1117158.36764774 -474161.074790849
 -365698.841036054 -978181.655797193 -707795.476706161
 -358651.114535128 -697864.519614794 -987878.495172598
 -298585.292463306 -225169.184873476 -1204863.10103139
 -184009.004556337 345112.177555295 -1199411.39817170
 -60697.1557300176 797516.214171541 -975619.379849914
 30534.4833466044 1052981.22455273 -694152.445061708
 84519.4592151257 1171307.85599143 -460916.259667309
 111211.745186517 1220921.77637318 -297542.256880069
 120806.642831668 1240749.36239834 -193639.370157049
 120994.205421337 1248477.22466085 -134960.930185554
 117821.227485170 1251180.48380501 -110521.428774291
 -341483.055981470 -1206052.35556427 -142746.169946494
 -378171.678600077 -1192756.30487239 -160835.349382278
 -436085.736736814 -1164832.17437422 -211056.074720157
 -508193.922889899 -1114140.08547945 -303282.438635300
 -589015.556897507 -1021892.93926166 -447599.067625068
 -668766.615464836 -851783.601095358 -647120.809326733
 -723279.419837309 -551210.530626924 -874404.518906864
 -709301.145546563 -95554.4062105138 -1038898.77817766
 -599991.136717164 420813.365014392 -1026876.90528372
 -435469.974851591 828068.809205572 -846296.271492776
 -279962.658569914 1065800.09329288 -614199.073478867
 -162423.088849739 1180558.26768122 -414065.632161105
 -82726.6828072555 1229892.99263694 -268456.613874975
 -32242.3118352648 1249282.20393685 -172637.884524701
 -2892.25496699814 1256172.04922870 -116502.568712991
 10709.8153072643 1258184.61292944 -91685.3890357245
 -456452.265108226 -1166356.17691768 -151043.136760643
 -507147.641371919 -1143581.28219035 -163010.894708702
 -587091.122603498 -1098139.39252899 -202393.970402213
 -685790.966562009 -1022178.41199627 -276390.077878497
 -794633.299199526 -899133.988158476 -389442.450254800
 -900101.311844297 -701616.468385500 -537681.495520712
 -974684.675777722 -398710.972735352 -694671.702276305
 -975813.281405822 9648.28871781786 -799527.848968235
 -877310.089654875 447261.480429833 -788564.268549129
 -709235.742359510 801834.983108281 -667528.840232729
 -530213.460859432 1028246.27251028 -503122.966988323
 -377310.819255057 1151541.34104771 -350910.980805770
 -260398.579794203 1212265.86527611 -232709.008090556
 -176827.555124733 1240018.64980850 -150449.974392343
 -121744.012227952 1251718.71480808 -99639.7782253316
 -92590.7324975842 1255890.77016624 -75596.0355161384
 -571767.332353020 -1114245.69562963 -151947.617104386
 -632854.682506400 -1080073.03071821 -156482.043902349
 -726560.842800935 -1015026.39573837 -182702.459156181
 -837237.769288800 -913838.284063385 -235546.044703271
 -951954.953908764 -765477.194748942 -315239.370902188
 -1054607.17879338 -554437.825237641 -414670.745655128
 -1120644.59611430 -268772.024356787 -513290.092483694
 -1119651.22036329 79873.3031979927 -575804.507705680
 -1035663.36700934 439637.342603480 -570674.888305405
 -887934.319760780 743841.398897572 -499822.016317827
 -716943.268400485 959805.958117538 -395366.037459288
 -555284.113177645 1095140.61734439 -289613.557717914
 -418559.889292339 1173125.91976875 -200331.291517998
 -311389.958986269 1215232.52381807 -133400.290165566
 -234854.042351252 1236310.75636681 -89043.3793268476
 -191581.667789391 1245172.42265108 -66268.6453402588
 -684746.734803771 -1049637.66081330 -144679.373432838
 -751676.385072278 -1003263.47844535 -141401.682668086
 -849938.077219548 -919399.108152408 -154466.746388497
 -958981.431052411 -797895.702908231 -187793.751483386
 -1063368.52263607 -635096.017201125 -239687.014502261
 -1148105.38214901 -426083.836598661 -303077.591696904
 -1195846.66684578 -170121.553289740 -364086.304904576
 -1189229.76503794 120044.031034009 -403573.323548349
 -1120635.52626058 413397.176111586 -405990.422281847
 -1000680.73470528 672975.818338557 -370528.063768728
 -852663.046858135 876397.580942198 -310551.830714646
 -699486.505172616 1021443.49747906 -242736.979997085
 -557010.894291236 1117640.70624310 -179353.132975880
 -435035.985989810 1177339.79127544 -127138.262109955
 -341148.259927115 1211283.76610790 -89212.8557503095
 -284935.727404958 1227100.96752612 -67707.2940207612
 -790387.710161411 -974737.499816534 -129319.391415859
 -858319.507391364 -916885.285123608 -118989.193098362
 -952740.420799313 -818009.321067020 -121226.532333378
 -1050521.64798126 -684358.370232203 -140026.137327364
 -1136800.48182667 -518862.539812336 -173250.570611161
 -1200358.87709863 -323205.173232971 -215003.286218856
 -1231153.09110043 -100860.462407568 -256200.437774304
 -1220816.04631315 138845.064153161 -286146.221613322
 -1166157.00506997 379201.007098514 -296367.789512725
 -1072123.03372913 600865.416591310 -284714.563398063
 -950134.834320742 789598.764177795 -255591.508345148
 -813553.829464393 939583.594172278 -216476.943449132
 -674781.557942191 1051540.46771352 -174590.734980100
 -545295.941363414 1129527.11606184 -135536.937152033
 -437699.112218849 1178664.23622908 -103535.193612153
 -369235.648144282 1203462.42500782 -83022.0371510786
 -880331.804921995 -897212.617454859 -107586.538384395
 -945152.428222666 -830509.128833236 -92146.1082651393
 -1030160.37286484 -722926.045233733 -87732.3784052472
 -1112906.31900821 -585885.945859656 -98623.5999884351
 -1181031.57804494 -426253.503437648 -122563.425975129
 -1227167.57624322 -248445.274166412 -154544.868826754
 -1246190.18867794 -56383.0360396498 -188096.777773425
 -1234457.85011801 144300.627547895 -216426.837731059
 -1190607.00173428 345275.471779293 -234071.029663757
 -1116444.51023220 536888.189242990 -238436.907257929
 -1016621.99443439 710702.352300286 -230068.072070047
 -897592.708836066 860867.476774145 -211622.180774614
 -767251.726556148 983888.656216442 -186647.612318422
 -635838.092105859 1077969.52343822 -158874.346842130
 -518103.301911328 1142643.73534028 -132225.918620914
 -437652.624416464 1177875.67702799 -112332.100159305
 -941399.304068757 -835459.675149749 -85579.8598765421
 -1000884.71391533 -764955.538209116 -67987.0938691690
 -1076163.42988640 -655447.051907188 -61732.2058593808
 -1146975.64243475 -520556.771680639 -70830.4598162529
 -1202883.86018331 -368790.782522811 -92807.3733906130
 -1238664.12966903 -205270.555958938 -122982.127345870
 -1251446.41646188 -33414.5436153332 -155931.927194718
 -1239464.81789539 143331.940506536 -186366.174369557
 -1201959.84066188 320548.387608585 -209977.864444251
 -1139391.54455819 493053.459158780 -224130.822333334
 -1053406.76803175 655664.225718629 -228008.848724461
 -946826.079770846 803541.594005046 -222240.213032106
 -824324.315861567 931990.230060342 -208406.008239648
 -694128.623869665 1036388.70055761 -188767.968152079
 -570706.201114829 1112718.04849382 -166440.402198899
 -479658.750344336 1157528.34678133 -146986.531814102
 494619.553266808 -1152402.46137771 -137366.282091678
 590054.101200914 -1104438.91594523 -153623.792169891
 717055.250595506 -1022965.92978037 -175846.253929286
 847977.743087879 -912972.614445958 -197393.473595894
 968321.715791566 -779788.991914076 -214083.193490426
 1070599.59422051 -628963.340166107 -223094.277158613
 1151163.27914688 -465648.670692731 -222584.480916449
 1208251.97980645 -294663.523861659 -211778.166764627
 1241113.37373670 -120725.224551764 -191343.786436292
 1249825.58392013 51780.7539534208 -163719.865067340
 1235212.97015585 219353.086230854 -132975.835544331
 1198651.24577387 379391.368524376 -104148.026447475
 1142271.57002016 529135.986778296 -82341.9621990775
 1070374.47396173 663860.570085561 -71673.2857889399
 992714.381217139 775025.758856521 -73502.7982630686
 930405.449710572 847961.752718317 -82800.9419916300
 450857.111555877 -1172926.75087895 -111893.399943850
 534409.077724155 -1135402.33214185 -129683.895421955
 655451.678023412 -1066499.78551183 -156559.050196609
 788141.762795555 -967335.469622395 -186129.207452480
 917227.062632198 -839429.425876811 -213546.682170880
 1032736.28059637 -685567.394682883 -234526.230956491
 1127515.67343011 -510020.544458651 -245228.222924075
 1196172.04597033 -318979.522361842 -242845.489297040
 1235153.47971559 -120595.781854102 -226720.025283208
 1243385.60511147 76322.7350463126 -199290.009874035
 1222332.01607017 264482.321130841 -165840.209895039
 1175171.43376093 439121.380951278 -133018.588861407
 1106240.43504882 596909.700909546 -107146.347310750
 1022018.73676040 733760.193733141 -92860.7060188854
 934282.517893830 842788.313689297 -91506.6444891838
 866613.036899784 911543.413794249 -98080.9867538753
 380872.629985341 -1199525.22064848 -87319.6179287886
 451602.564256454 -1173113.27706725 -106816.637489093
 562236.978535590 -1120646.94707857 -139962.248087161
 693559.237278339 -1038047.57466248 -181610.154017304
 832038.242759770 -920809.552939411 -226652.952153085
 965811.352058041 -765841.149127348 -268784.667453476
 1082725.10330073 -573663.658630499 -300276.186814811
 1170494.00181158 -351124.573694032 -313376.381353540
 1219308.55603566 -112550.391599680 -303592.630753675
 1225444.73089272 123742.214152430 -272988.107585078
 1192245.37089505 342388.882640765 -229935.337741497
 1127409.18850920 534981.997028652 -185181.574243258
 1040076.85861470 698494.731397265 -147968.474018635
 940654.109642814 831447.905374303 -124151.752221724
 843598.925759326 930914.447442326 -115276.081299693
 773229.486526010 989953.455082270 -116866.371794258
 296058.998364859 -1224130.22410754 -73509.8281358944
 354185.417842597 -1207089.28715666 -95066.1534840390
 450950.090070941 -1170421.77981277 -135300.792768782
 575121.989591548 -1106404.70991236 -191449.068660454
 717903.496073156 -1004400.97584383 -259504.683905442
 868417.182676777 -852846.885931758 -331742.696840767
 1010372.62047451 -643996.518629504 -394924.148043007
 1122037.32470353 -382216.857012638 -431847.133956540
 1182849.33651933 -90543.9328649319 -429207.029574412
 1184402.40156736 195743.097336183 -387846.647433841
 1134321.86173073 447677.167932772 -323184.928841641
 1048708.12893583 653379.909404204 -254667.204818002
 943740.903632984 813732.794319240 -196828.547671199
 833655.716644884 933742.518242205 -157138.431489450
 733549.280721101 1017196.39611436 -136990.420849283
 664897.472538194 1063966.19300458 -132048.180883437
 203285.634632676 -1243012.87258726 -71717.3636807513
 248335.821819699 -1233181.71024978 -95611.8194864605
 327686.364846909 -1209788.60506950 -143466.401141025
 437286.761542300 -1163511.97258583 -215799.927590901
 574573.022904146 -1079062.00422565 -311513.183198203
 733037.040393460 -935425.047421450 -423303.802235142
 895644.320071219 -711818.861225745 -531680.911493352
 1031183.65534535 -404747.886724154 -603646.293834298
 1104284.22855395 -48307.7295188756 -608088.921749679
 1099770.33172963 294641.071900406 -543361.101953048
 1032706.59483020 575708.563106793 -440029.737948104
 930802.845160523 783446.131307898 -333717.925348215
 816980.429067339 929184.796685939 -246389.981629955
 706637.878720587 1028379.12503254 -186141.651635334
 612373.283017584 1092352.17115655 -152692.918417316
 550433.766663253 1126403.78244437 -140664.915067259
 105731.386458194 -1254606.22864194 -79583.3895321338
 136591.877775650 -1249680.49113582 -105786.388156532
 194506.536695251 -1236020.44700397 -161152.389649932
 280778.911090737 -1204231.95686854 -250076.044558874
 398508.591038073 -1136345.56879391 -376110.465249564
 547515.392605318 -1002700.17647070 -535134.265287537
 714950.540552673 -766268.207267624 -702302.064651142
 865077.654461961 -409663.920068941 -821806.275994102
 948397.136292467 19716.1091954074 -831687.187486615
 942081.024151263 419045.762711048 -726934.263607775
 869181.553228306 717711.582186416 -566535.915226965
 767116.791825796 913372.805879721 -410890.954022180
 661278.582075093 1034722.24258053 -289153.849216676
 564633.652057449 1108983.65572884 -207107.511233965
 485538.701417289 1153262.93125822 -160580.857298314
 434848.237861646 1175716.05683433 -141944.336447421
 4403.36591658374 -1258088.37809006 -93507.6157448418
 19634.6923018858 -1255551.84234253 -121463.908085707
 51882.9452718563 -1247144.46612120 -182998.009639815
 105522.181965864 -1224102.45491805 -286334.908622264
 186842.819714968 -1167333.98760973 -440420.881670115
 301063.443210096 -1040635.10136662 -646520.548695179
 443625.580670466 -791178.353783470 -876802.479238183
 585498.632408639 -385258.051447768 -1048959.96880779
 674904.715258525 114178.038881431 -1059724.69617253
 683033.152168232 557462.476973699 -902358.426970364
 631863.763629776 856961.406567348 -676693.994937653
 557384.711019424 1029085.50682367 -471014.579908326
 481194.576523655 1122054.66846158 -317796.367862728
 412530.759120561 1172242.55570475 -217290.575711822
 356618.694137799 1199463.85346101 -160184.275604309
 320642.025577231 1212503.15299219 -136287.293379397
 -100540.342645730 -1252756.55801313 -109736.396763953
 -102228.401471201 -1249796.10328481 -138233.444092623
 -99125.1885584363 -1241184.43486982 -202940.450746262
 -85806.4437139647 -1218635.85636139 -314822.703638837
 -55924.4906394831 -1162540.53447265 -486745.711818506
 -2116.76618920847 -1032876.02348918 -724370.119704719
 80553.4582407313 -766915.095649981 -998449.701962293
 183529.432588699 -321677.005649735 -1205981.04559269
 274956.863092611 223406.971883454 -1210800.34657704
 323433.399133929 683943.275139523 -1009535.46923080
 329982.816110803 969364.705763162 -736880.478240018
 312681.646587905 1115757.36459375 -498863.831281472
 285365.312648967 1184621.66514835 -326783.689490241
 255533.680280262 1216466.34048584 -215549.557240014
 228163.150490382 1231399.76117935 -152136.898366901
 208998.501843727 1237848.59088331 -124899.652498424
 -208998.470840717 -1237848.57395400 -124899.872158636
 -228163.100365345 -1231399.74134440 -152137.134084927
 -255533.594646898 -1216466.31091130 -215549.825663667
 -285365.178879553 -1184621.60528267 -326784.023323514
 -312681.441643684 -1115757.23348682 -498864.252971109
 -329982.513433151 -969364.420225066 -736880.989406712
 -323432.966020611 -683942.734876360 -1009535.97400980
 -274956.300307403 -223406.188409246 -1210800.61893801
 -183528.823834092 321677.796637023 -1205980.92725042
 -80552.9164599951 766915.650521571 -998449.319471859
 2117.18547687959 1032876.32164035 -724369.693346779
 55924.7956063556 1162540.67328623 -486745.345237669
 85806.6552486468 1218635.91773253 -314822.408424486
 99125.3295462667 1241184.46209629 -202940.215364155
 102228.498582251 1249796.11820630 -138233.237367239
 100540.412068919 1252756.56939810 -109736.203186900
 -320642.039750668 -1212503.12134150 -136287.541619199
 -356618.694237644 -1199463.81869637 -160184.535700283
 -412530.736619945 -1172242.50904335 -217290.870159128
 -481194.522565096 -1122054.59128962 -317796.722038148
 -557384.614255459 -1029085.35938677 -471015.016539876
 -631863.597681955 -856961.118066239 -676694.515247486
 -683032.874639286 -557461.965451002 -902358.953053857
 -674904.292033567 -114177.316013380 -1059725.04359461
 -585498.096942989 385258.792575052 -1048959.99549015
 -443625.036674007 791178.902258621 -876802.259563571
 -301062.978025571 1040635.42373416 -646520.246435444
 -186842.460951354 1167334.15309534 -440420.595251603
 -105521.917603623 1224102.53438117 -286334.666336088
 -51882.7559746696 1247144.50390158 -182997.805832509
 -19634.5561540437 1255551.86182120 -121463.728746054
 -4403.26081520063 1258088.39077011 -93507.4500915589
 -434848.292620469 -1175716.00325356 -141944.612499005
 -485538.748276806 -1153262.87186245 -160581.142181518
 -564633.686107347 -1108983.58098866 -207107.818609909
 -661278.598334763 -1034722.13386840 -289154.201052296
 -767116.782443742 -913372.627803795 -410891.367384258
 -869181.493433611 -717711.285037841 -566536.383404281
 -942080.877511186 -419045.290212050 -726934.726022774
 -948396.857453606 -19715.4771824747 -831687.520436940
 -865077.246453927 409664.570126207 -821806.381436622
 -714950.074308253 766268.724806854 -702301.974615233
 -547514.950062387 1002700.51870851 -535134.076805820
 -398508.215824797 1136345.76945737 -376110.256541107
 -280778.619329767 1204232.06489455 -250075.851945051
 -194506.315108721 1236020.50420418 -161152.218379509
 -136591.710761017 1249680.52256605 -105786.232513341
 -105731.254119806 1254606.24901950 -79583.2441059005
 -550433.861248475 -1126403.69839650 -140665.217977809
 -612373.373371577 -1092352.07788074 -152693.223340430
 -706637.955686574 -1028379.01504316 -186141.967113563
 -816980.490287679 -929184.653196555 -246390.319761664
 -930802.885194909 -783445.926438390 -333718.294642172
 -1032706.59489915 -575708.263307937 -440030.130024874
 -1099770.26067319 -294640.647073002 -543361.476137362
 -1104284.05185773 48308.2594974040 -608089.200525672
 -1031183.36158037 404748.440068593 -603646.424640115
 -895643.951240486 711819.334887117 -531680.898665868
 -733036.654461963 935425.395860054 -423303.700567602
 -574572.670612894 1079062.23237887 -311513.042675983
 -437286.466396973 1163512.11133505 -215799.777575527
 -327686.123875009 1209788.68765189 -143466.255155142
 -248335.629129733 1233181.75970485 -95611.6821049766
 -203285.474040775 1243012.90640215 -71717.2328011572
 -664897.599346408 -1063966.07305541 -132048.508849502
 -733549.403437307 -1017196.26404757 -136990.744371284
 -833655.823514734 -933742.369271557 -157138.749727947
 -943740.989331404 -813732.616996839 -196828.869859615
 -1048708.18696772 -653379.688739156 -254667.531988197
 -1134321.88508842 -447676.876624808 -323185.250381035
 -1184402.36616021 -195742.724758319 -387846.943596627
 -1182849.22130332 90544.3762501082 -429207.253562376
 -1122037.11772969 382217.318359509 -431847.263395128
 -1010372.34101135 643996.940488635 -394924.175101337
 -868416.865458326 852847.226540886 -331742.651596095
 -717903.181799138 1004401.22451072 -259504.590870749
 -575121.701612170 1106404.87963937 -191448.952893124
 -450949.838394925 1170421.89082026 -135300.671318655
 -354185.202010237 1207089.36015589 -95066.0307069522
 -296058.812461748 1224130.27626532 -73509.7082927214
 -773229.645173492 -989953.289435664 -116866.725287134
 -843599.070961047 -930914.273980575 -115276.419496058
 -940654.231940189 -831447.719377621 -124152.071242169
 -1040076.95150766 -698494.528479928 -147968.778953847
 -1127409.25033799 -534981.765990612 -185181.865280718
 -1192245.39625729 -342388.611424911 -229935.610092861
 -1225444.71022098 -123741.890542054 -272988.347068990
 -1219308.47546447 112550.758774633 -303592.818226503
 -1170493.85414540 351124.958312417 -313376.501953970
 -1082724.89335182 573664.028654636 -300276.236926898
 -965811.098531119 765841.472787233 -268784.656243895
 -832037.967577883 920809.815593670 -226652.895269773
 -693558.964322106 1038047.77268932 -181610.064539767
 -562236.718167088 1120647.09047829 -139962.145833109
 -451602.328405137 1173113.37794121 -106816.526780199
 -380872.413810215 1199525.29743382 -87319.5060318182
 -866613.212038348 -911543.206860147 -98081.3624836612
 -934282.672322204 -842788.104123137 -91506.9979070654
 -1022018.86044103 -733759.980182759 -92861.0322146883
 -1106240.52553005 -596909.479732047 -107146.645304304
 -1175171.49039225 -439121.147510275 -133018.859179682
 -1222332.03848053 -264482.065778428 -165840.451954803
 -1243385.58966817 -76322.4511652601 -199290.214944484
 -1235153.41956741 120596.092005553 -226720.187991456
 -1196171.93509065 318979.849731863 -242845.605448140
 -1127515.51205796 510020.871453878 -245228.284806339
 -1032736.07370890 685567.702074847 -234526.243416559
 -917226.825095379 839429.693621068 -213546.649965870
 -788141.505285232 967335.691687220 -186129.143751562
 -655451.414862075 1066499.96020937 -156558.961888682
 -534408.822933105 1135402.46378879 -129683.792790614
 -450856.867605914 1172926.85522298 -111893.289111804
 -930405.632475232 -847961.513623722 -82801.3368870562
 -992714.536581200 -775025.524845397 -73503.1673973501
 -1070374.59435286 -663860.339864124 -71673.6202406693
 -1142271.65402548 -529135.759340440 -82342.2583857360
 -1198651.29557291 -379391.139539207 -104148.287453434
 -1235212.98897366 -219352.844866541 -132976.058892784
 -1249825.56994831 -51780.4941804840 -163720.053887002
 -1241113.32385439 120725.502037478 -191343.934912671
 -1208251.88785518 294663.819211579 -211778.280427911
 -1151163.14410554 465648.972049260 -222584.548883064
 -1070599.41590273 628963.635000515 -223094.301663260
 -968321.503072314 779789.261518367 -214083.173620366
 -847977.500964033 912972.850790692 -197393.420601763
 -717054.989677359 1022966.12608614 -175846.175898363
 -590053.832265996 1104439.07326184 -153623.694135036
 -494619.284961755 1152402.59039548 -137366.165822058
 521226.305061132 -1142034.67025663 -125017.525823813
 619009.042304898 -1090335.65778958 -139804.827585768
 747923.944830571 -1002891.86922040 -162379.500921914
 878174.609993307 -886371.468451589 -186291.183895076
 994891.559631376 -747697.526576299 -206612.255795456
 1091327.03167612 -593483.005590964 -219846.907930651
 1164991.89370530 -429300.991965395 -223705.111290344
 1215283.95999547 -259804.337101981 -217108.346038738
 1242349.60850446 -89073.2400690432 -200456.576523124
 1246718.15242061 79429.8595253067 -175881.143843426
 1229140.07085460 243159.392632927 -147097.338225059
 1190467.02593134 400291.530550293 -118761.869549271
 1132039.72533715 548547.236669573 -95558.4654529417
 1057399.99008659 683281.896425917 -81120.5393252939
 976158.742333778 795485.872080209 -76588.3020119882
 910759.577779080 869406.378059351 -78733.5518844865
 475210.070086171 -1163694.95218232 -107419.171813217
 561123.584219284 -1123006.31822555 -124685.858770524
 684651.330607185 -1048580.57569192 -152580.348336133
 817684.127957691 -942749.731795108 -184837.877625978
 944090.838733182 -808476.705244374 -215887.322963232
 1054159.52910332 -649879.033627765 -240737.117559108
 1141734.98368003 -472152.747576394 -255073.402996442
 1202798.08278259 -281751.409263775 -255817.017321680
 1235105.17337423 -86297.0061806566 -242110.446588777
 1238341.51592890 106524.116742567 -216130.362045857