# OOMMF OVF 2.0
#
# Segment count: 1
#
# Begin: Segment
# Begin: Header
#
# Title: Oxs_MinDriver::Magnetization
# Desc: Oxs vector field output
# Desc:  MIF source file: C:/Users/grl31/Documents/GitHub/phd-work/Skyrmions/stdprob3/drive-128/stdprob3.mif
# Desc:  Iteration: 641, State id: 1323
# Desc:  Stage: 0, Stage iteration: 641
# Desc:  Stage simulation time: -1 s
# Desc:  Total simulation time: -2 s
# meshunit: m
# meshtype: rectangular
# xbase: 3.1249999999999999e-09
# ybase: 3.1249999999999999e-09
# zbase: 3.1249999999999999e-09
# xnodes: 16
# ynodes: 16
# znodes: 16
# xstepsize: 6.2499999999999997e-09
# ystepsize: 6.2499999999999997e-09
# zstepsize: 6.2499999999999997e-09
# xmin: 0
# ymin: 0
# zmin: 0
# xmax: 9.9999999999999995e-08
# ymax: 9.9999999999999995e-08
# zmax: 9.9999999999999995e-08
# valuedim: 3
# valuelabels: Magnetization_x Magnetization_y Magnetization_z
# valueunits: A/m A/m A/m
#
# End: Header
#
# Begin: Data Text
 500673.561247907 -1157757.43598607 -21751.6759182529
 605885.980585887 -1105441.17445426 -49511.8093954067
 740654.946479799 -1018084.87265139 -80516.2918443655
 874866.224691314 -902603.220521510 -107079.158184584
 994206.508397813 -766457.441506910 -125083.331971391
 1092857.06121834 -616267.666965078 -132011.504489492
 1169081.04901916 -456900.396097749 -126652.910700619
 1222467.71266560 -291940.276850090 -109055.018966503
 1252816.83382731 -124487.436758078 -80636.7775104775
 1260062.07285933 42781.0853565214 -44303.2978019469
 1244267.14996668 208160.321158279 -4239.23672610140
 1205346.24150825 370801.609079003 34583.7491506766
 1143308.02640452 529086.600067370 66809.8593555862
 1060375.03507994 677922.993466258 87032.3550636356
 966126.741339079 806149.773015382 90945.5554479432
 886399.517540437 894121.792080560 79947.1522299685
 447841.609764147 -1179358.17218759 10080.9313634024
 537903.451565269 -1141036.68676213 -15639.2831044408
 665431.850634382 -1070693.78632292 -48628.1709479580
 802829.416181790 -969709.803080764 -81714.4861161428
 934168.249868966 -840706.312256618 -109963.668489118
 1049885.77619131 -687459.777932666 -129183.364234276
 1143853.85501237 -514427.565560315 -136059.064688740
 1211619.94280937 -327074.625835102 -128641.883694226
 1250025.10159371 -132319.710093103 -107136.224618261
 1257809.88751691 62458.9097608661 -74582.8557721070
 1235673.96123957 251655.136049373 -36455.2456230947
 1185246.26883920 432134.407104104 753.205473519808
 1108695.45516333 601165.357821419 30725.0903102940
 1010841.10454912 753291.681997926 47972.2222291398
 904379.878485165 878207.559361180 48968.8573584443
 818745.118881843 959102.093890640 36455.9284712490
 369296.471489094 -1205881.25216152 31936.6991097582
 442672.145199184 -1181321.59573296 8371.99131902267
 556611.674829701 -1131831.15215107 -26289.1114839250
 692164.260224463 -1052593.36299277 -67121.3823639664
 835585.762832011 -938804.587454804 -109507.125088807
 974763.997345784 -787142.394742134 -147619.208767154
 1097296.80230481 -597529.454106325 -174492.722043051
 1190248.01534211 -375843.222963843 -183305.659065031
 1242605.15379861 -135860.942031926 -170363.338492449
 1249631.28175006 103979.791252481 -138417.100105980
 1214176.98433059 328746.710553097 -96173.1872266579
 1143100.23949334 530999.683708584 -53950.0629342540
 1044255.67378228 707579.309011384 -20274.1251710442
 927737.885172055 854898.296975976 -865.542034435693
 810444.896103531 966811.863409714 1822.65436279147
 722765.544370381 1033966.00943109 -8584.29560793408
 279911.562488329 -1229545.93401458 37626.3770845715
 337218.770811963 -1215561.41486464 15600.5840690546
 433326.282353000 -1184624.38921944 -21043.2984002713
 559219.038043446 -1128650.08132261 -70515.9013214354
 707640.408077979 -1036253.21825399 -130283.350557286
 868620.726988781 -894022.032230889 -194350.378055167
 1025314.55801742 -690746.542315708 -251294.055471659
 1152463.42392856 -426911.248108250 -284823.232311676
 1223407.77997249 -125404.691589347 -281240.996565442
 1225962.27013440 173570.998286535 -241741.704469198
 1169008.55474781 437611.013356790 -182934.498753625
 1070968.85624506 655185.026203887 -123724.376378732
 949134.715850017 827531.125344537 -76713.4842988250
 819080.662891974 958316.520440279 -47809.4681693287
 698952.053464709 1049554.63627340 -38085.7368766151
 615020.611098341 1100644.84949484 -43358.8990134887
 187406.100977101 -1247217.40425624 29616.3933630378
 229089.742549327 -1240562.83054604 8437.07563210462
 304265.590890474 -1223930.69621033 -31073.0106865329
 412240.694161576 -1188855.56884518 -90716.4672038482
 554002.529981039 -1120299.94567465 -171926.319727200
 726858.855599330 -994778.536066614 -271369.303969612
 915391.390836811 -783459.323191879 -373897.741908834
 1081731.64374112 -470933.098457952 -446797.603647192
 1173938.07851659 -90062.8289003194 -453108.712759094
 1166873.99125070 279029.773828170 -389996.031747791
 1082925.34376988 576592.551910029 -293876.096036617
 959501.598575677 793953.741263341 -201354.339371210
 823567.138489053 946701.285762054 -130549.894126271
 692091.841225263 1051271.98249387 -85939.1241041268
 579610.919299154 1118606.06505305 -65734.9555007025
 505068.847132484 1154256.22763784 -64400.7106674230
 94351.3440648435 -1257973.20628419 12274.6512446788
 120271.769233885 -1255791.08912200 -8536.56406718635
 171490.320038381 -1248788.59677462 -51648.2489320996
 252940.034313503 -1229834.68673648 -122790.118740169
 372600.018632279 -1183288.11420984 -229233.278133635
 537501.082794225 -1078158.25130530 -374455.340536488
 741427.534774745 -864122.102387472 -543256.508255772
 941046.323846992 -496292.994706499 -677993.001953759
 1053859.77283235 -17096.9532731461 -693279.672508487
 1036785.39362670 425530.863508506 -579265.882547026
 933274.521760021 738828.157595649 -417948.623034429
 800896.747272951 934890.972791975 -275849.053140725
 669937.910717072 1054721.93109641 -174052.505777016
 552940.303878537 1128480.98598072 -111072.568826157
 458148.004923727 1172732.41893336 -79677.5381526323
 397338.141011862 1195207.99013915 -71761.3609382815
 650.665626894628 -1261526.59913105 -9982.34631892682
 10070.2392733909 -1261158.57192550 -30447.9499929289
 33945.3149911520 -1258758.70962141 -76965.3003720118
 79795.3974556747 -1248945.53617911 -159113.711295132
 158680.884968411 -1217244.22958707 -291009.094705934
 284518.622311227 -1128557.89411946 -486780.920022268
 464602.911204348 -911933.953646971 -737611.028934087
 667123.057798038 -483378.780052839 -955427.240383996
 795154.353967465 103686.539840266 -973924.065695827
 787990.906268236 605024.435007808 -777537.906214868
 699910.773200947 906036.770626049 -529878.958583680
 593319.594998664 1062537.70535631 -332467.913949189
 493212.768647744 1143711.07158668 -200538.227008776
 406555.711033078 1188079.82948495 -121359.810136449
 337377.190021411 1212942.08251543 -80607.4874644558
 293122.399194459 1225199.51036138 -67192.6321829470
 -94635.1219789057 -1257576.84797335 -33077.1227345353
 -102720.771052345 -1256277.36585465 -52583.7822399478
 -109351.640891020 -1252771.78832701 -100769.518830523
 -107048.611837640 -1242576.23686972 -189985.055173497
 -86648.6316052414 -1211917.78184269 -339553.730083152
 -35053.0303864687 -1123405.65635929 -572957.631277936
 63931.6523907692 -892172.754413338 -889657.209842115
 210413.171882105 -405646.749662356 -1175893.89083617
 345109.093992137 261698.286265181 -1184889.51009313
 397888.804277021 780395.607598014 -907863.770613015
 385388.456244784 1045695.71560970 -591223.848527561
 346972.940054455 1159461.81460760 -356100.421588866
 301744.305514067 1207542.71426354 -205767.826051156
 257286.634250528 1229488.13366041 -117098.027068093
 218636.624869214 1240470.56344066 -70570.8043170842
 192363.372022702 1245675.28798102 -53280.7745477172
 -192363.456165563 -1245675.27928135 -53280.6741541643
 -218636.727682211 -1240470.55174960 -70570.6912918282
 -257286.772027004 -1229488.11751908 -117097.893825025
 -301744.493835497 -1207542.69716319 -205767.650243587
 -346973.195640983 -1159461.81188591 -356100.181415103
 -385388.816416995 -1045695.77055140 -591223.516574375
 -397889.311228565 -780395.819166930 -907863.366567783
 -345109.774886473 -261698.733686173 -1184889.21295783
 -210413.906618510 405646.267264897 -1175893.92577500
 -63932.2623191793 892172.480486095 -889657.440713555
 35052.5882623287 1123405.54787819 -572957.871026813
 86648.3194439956 1211917.74873074 -339553.927922948
 107048.390507602 1242576.23232590 -189985.209601815
 109351.481905301 1252771.79224377 -100769.642662895
 102720.659052525 1256277.37045075 -52583.8912226908
 94635.0335819218 1257576.85196405 -33077.2239176409
 -293122.477437051 -1225199.49784277 -67192.5191218417
 -337377.281974306 -1212942.06521558 -80607.3629214888
 -406555.828378475 -1188079.80386448 -121359.667846353
 -493212.916154332 -1143711.04090066 -200538.039233021
 -593319.776582320 -1062537.68623666 -332467.651000957
 -699911.001466412 -906036.808753857 -529878.591875879
 -787991.210683131 -605024.622577670 -777537.451753827
 -795154.794702492 -103686.950625000 -973923.662126904
 -667123.620224474 483378.302597298 -955427.089230623
 -464603.455861103 911933.624906419 -737611.092301297
 -284519.061201009 1128557.72452237 -486781.056690927
 -158681.211494043 1217244.15172814 -291009.242329816
 -79795.6361574636 1248945.50371698 -159113.846394085
 -33945.4835255885 1258758.69772519 -76965.4206014370
 -10070.3564909669 1261158.56830438 -30448.0612115041
 -650.755352311249 1261526.59825819 -9982.45077870669
 -397338.213462022 -1195207.97378150 -71761.2322279972
 -458148.086203395 -1172732.39667145 -79677.3984538190
 -552940.400399782 -1128480.95444240 -111072.408749707
 -669938.018884259 -1054721.89504493 -174052.307899735
 -800896.858727637 -934890.953764698 -275848.794030516
 -933274.637851322 -738828.199585716 -417948.289575835
 -1036785.53733649 -425531.043323954 -579265.493238174
 -1053860.00787223 17096.5972359445 -693279.324002557
 -941046.682693496 496292.567877744 -677992.816318753
 -741427.945016485 864121.764459155 -543256.485884506
 -537501.459775686 1078158.03811050 -374455.413254604
 -372600.326469569 1183287.99592945 -229233.388325072
 -252940.273913994 1229834.62584643 -122790.235036990
 -171490.497448934 1248788.56773355 -51648.3620424899
 -120271.892650078 1255791.07656006 -8536.67320777640
 -94351.4335998888 1257973.20064114 12274.5413473648
 -505068.914308803 -1154256.20669550 -64400.5591807414
 -579610.994546103 -1118606.03556820 -65734.7937596277
 -692091.919704327 -1051271.94508652 -85938.9496848537
 -823567.214042244 -946701.248469485 -130549.687935161
 -959501.661571655 -793953.727278305 -201354.094324088
 -1082925.39303950 -576592.601639378 -293875.816909003
 -1166874.05060086 -279029.939500430 -389995.735637808
 -1173938.19884348 90062.5382327425 -453108.458784591
 -1081731.86257357 470932.745402680 -446797.445963561
 -915391.679444298 783459.008997814 -373897.693685404
 -726859.157041740 994778.304988986 -271369.343638453
 -554002.801717303 1120299.79787033 -171926.407221311
 -412240.926347221 1188855.48056216 -90716.5690524638
 -304265.770624482 1223930.64880465 -31073.1179941841
 -229089.876813603 1240562.80653657 8436.96026972942
 -187406.205742789 1247217.39119358 29616.2805283412
 -615020.679493319 -1100644.81861645 -43358.7127034658
 -698952.121078409 -1049554.59819923 -38085.5452606836
 -819080.726517623 -958316.475826897 -47809.2723750636
 -949134.765067550 -827531.088061781 -76713.2775365865
 -1070968.88473985 -655185.021030087 -123724.157123185
 -1169008.56907387 -437611.069694570 -182934.272435734
 -1225962.29205056 -173571.145714273 -241741.487470651
 -1223407.84531202 125404.454437136 -281240.818081747
 -1152463.55782029 426910.963417727 -284823.117265624
 -1025314.75618956 690746.263559609 -251294.013134686
 -868620.956711830 894021.802789323 -194350.406784519
 -707640.641252558 1036253.04931733 -130283.427753319
 -559219.253313142 1128649.96836989 -70516.0020243108
 -433326.466072502 1184624.31996155 -21043.4140694215
 -337218.917284747 1215561.37577641 15600.4636089201
 -279911.682845952 1229545.91036807 37626.2544302574
 -722765.614213182 -1033965.96246850 -8584.07167824246
 -810444.958539540 -966811.810653573 1822.87617646857
 -927737.932320843 -854898.246029133 -865.325553080487
 -1044255.69992881 -707579.276300263 -20273.9200833410
 -1143100.24782738 -530999.685381251 -53949.8698880920
 -1214176.98286120 -328746.769685161 -96173.0036475787
 -1249631.28876974 -103979.921252803 -138416.939074967
 -1242605.19200416 135860.746545519 -170363.215722597
 -1190248.10122712 375842.989358962 -183305.580367587
 -1097296.93639066 597529.215694261 -174492.695258086
 -974764.167993751 787142.178228439 -147619.236443602
 -835585.953949645 938804.408256881 -109507.203043734
 -692164.453279406 1052593.22908352 -67121.4915127636
 -556611.854891396 1131831.06065705 -26289.2382023259
 -442672.303694430 1181321.53731094 8371.85440292655
 -369296.603971349 1205881.21524199 31936.5611904626
 -818745.185019987 -959102.027825377 36456.1811877110
 -904379.929953438 -878207.492791626 48969.1006759644
 -1010841.13616067 -753291.625130604 47972.4490979064
 -1108695.46745016 -601165.324954724 30725.2900150994
 -1185246.26519480 -432134.416787746 753.384527852857
 -1235673.95384632 -251655.194943730 -36455.0896665793
 -1257809.88919884 -62459.0298694956 -74582.7268227109
 -1250025.12770096 132319.538020167 -107136.132529106
 -1211620.00156108 327074.430167367 -128641.827827363
 -1143853.94996521 514427.358330308 -136059.049935092
 -1049885.90369582 687459.577304114 -129183.395653691
 -934168.403445138 840706.131739773 -109963.743928906
 -802829.585237512 969709.653308100 -81714.6025346880
 -665432.022092677 1070693.67333414 -48628.3124820023
 -537903.613926065 1141036.60812054 -15639.4364668569
 -447841.756051194 1179358.11801765 10080.7699011544
 -886399.573729193 -894121.711700150 79947.4282141184
 -966126.780031838 -806149.697743604 90945.8116251705
 -1060375.05262717 -677922.936631569 87032.5839769365
 -1143308.02629729 -529086.575481215 66810.0558950612
 -1205346.23225029 -370801.623248892 34583.9198903314
 -1244267.14009901 -208160.383090945 -4239.09190786369
 -1260062.07292924 -42781.2004702544 -44303.1846545545
 -1252816.85436693 124487.280526466 -80636.6995866731
 -1222467.75966585 291940.097198783 -109054.973036896
 -1169081.12086947 456900.214609305 -126652.902199285
 -1092857.16165396 616267.482100553 -132011.536033933
 -994206.634046027 766457.266531002 -125083.405452713
 -874866.374166949 902603.061746094 -107079.275294088
 -740655.106558025 1018084.74418483 -80516.4437030787
 -605886.143938535 1105441.07720057 -49511.9817811058
 -500673.724048873 1157757.36221534 -21751.8551428502
 512480.885785977 -1152778.28315671 3873.30675877874
 624264.860631200 -1096104.42721211 -19947.4145211716
 764057.073634553 -1002528.48489599 -51988.9999914193
 899294.789980684 -880918.052114344 -82472.4019998291
 1016128.83442921 -740200.826134167 -105519.475694238
 1110034.51551793 -587802.455835829 -117733.080275671
 1180626.83458245 -428788.422407638 -117516.795361158
 1228643.25815680 -266497.236854668 -104711.020688534
 1254736.46524336 -103444.794180348 -80529.5490148115
 1259308.44124108 58520.4272897272 -47613.4469214935
 1242439.99052445 218621.631915513 -9842.91233087580
 1203618.05446414 376910.963956801 28127.1245608208
 1141999.03820375 532567.184691455 61317.3829389373
 1058552.14970018 681028.810296358 84950.2020621601
 961611.505857165 810957.211458096 95922.5933040722
 877768.739412929 900985.705096211 96416.9603372509
 457714.674948500 -1175411.13585933 21339.3756616348
 552844.456533275 -1133979.87310954 -1444.01587424077
 685365.254349844 -1058576.51878550 -35208.7052430762
 824915.367328193 -951826.601865474 -71345.5509893306
 955223.611709943 -817548.789890018 -103495.211000955
 1067302.93643010 -660585.199801806 -126653.332405604
 1156038.65295419 -486139.855452870 -137084.297915798
 1218199.45653267 -299930.775216402 -132593.533403968
 1251786.81558982 -108499.532360977 -113168.240738717
 1256270.60442494 81707.2547965303 -81593.6510420520
 1232409.46032518 266194.498311847 -43091.0905925151
 1181306.66078770 442773.249728177 -3981.63568349107
 1104231.09865819 609385.075931222 29545.5733973952
 1004895.66780951 760919.572174514 52302.3175241063
 895145.543235701 886832.176260446 61583.9142420982
 805809.361294916 968793.021612061 60504.4249968984
 377373.805803059 -1203296.46774742 34871.9417189995
 454745.498198491 -1176684.37619453 13032.3292945264
 573479.377344227 -1123449.13039441 -23084.3257617377
 712268.627771847 -1039074.99641662 -67423.9173644321
 856371.810772292 -919316.221450843 -114168.461542073
 993245.336804572 -761905.856391921 -156564.995546961
 1110740.86489252 -568208.973128815 -186929.732339927
 1197116.71871249 -345363.912301260 -197951.410143906
 1243203.83689840 -107345.647273957 -185662.497159201
 1245684.79444256 128551.221614916 -152621.778376673
 1207581.91052153 348927.998179345 -107445.857931693
 1135012.57222593 547375.599394276 -60628.7472720754
 1034867.08243025 721219.008394534 -21040.3077841643
 916385.391827798 867039.608400098 5437.09747673554
 796042.663000850 978561.808288385 16801.6951774312
 705672.729694127 1045603.23567443 17008.9103750918
 287523.383996871 -1227806.92363948 37012.0633968015
 348306.410984570 -1212433.00723845 15436.2542324605
 448996.257211709 -1178720.36280676 -23876.7299591027
 578773.804566463 -1118231.83668358 -78280.7351389125
 729106.542150416 -1019387.44753689 -144230.069391407
 888640.610080307 -869387.586575443 -214551.908272988
 1039643.17151701 -658995.554005537 -276435.103845259
 1157846.70323914 -391535.719169281 -312474.356278738
 1219827.59716724 -91225.3493148345 -308622.746651210
 1216282.97591843 203515.582723695 -266057.439284459
 1156214.21256939 462706.451600287 -201546.186317103
 1056683.03969999 675866.365806095 -134814.836354891
 933837.269024634 844492.045893684 -79564.8812094004
 802560.657735246 972446.295872278 -42355.9112617034
 680644.486906611 1061930.78851971 -23989.8677882141
 595280.462651181 1112115.36359748 -19748.9178234551
 195858.495278939 -1245948.93859829 28286.4482008849
 240757.351551573 -1238364.22342248 6275.24820795399
 320373.461673851 -1219640.38322339 -37250.6588500779
 432588.102426085 -1180542.98329175 -103610.950960631
 576922.022244266 -1105112.27851036 -193487.113405972
 748329.930046367 -969698.539760290 -302053.784453222
 928885.609032046 -747828.798590017 -411671.038878775
 1081351.84455538 -429592.960146097 -487521.802372505
 1160179.40178440 -51142.7141371326 -492866.725783790
 1146102.72352758 311697.699835183 -425255.831187617
 1060398.17273702 603470.867323990 -320824.030375188
 937305.053684870 815828.931949284 -217788.477772007
 802201.610012637 964048.600856343 -136500.194135446
 671404.853233646 1064869.53118471 -82570.1854649611
 558980.308725929 1129682.05271346 -53934.2669620359
 484266.862210488 1164077.78586624 -44248.6783588668
 104578.841790046 -1257167.33182570 11958.1168688213
 133543.703353052 -1254430.78432022 -10904.9329880051
 189156.498972953 -1245896.77164419 -59249.3394210075
 275161.866259133 -1223350.52621445 -138740.290783061
 397835.249540733 -1169472.79825745 -256144.332901797
 560716.980068506 -1051992.03906707 -412866.381437538
 752616.090412063 -823333.581354761 -589270.960751808
 929861.493483987 -449189.193063968 -724662.751001611
 1022766.29217549 21491.4478560962 -738265.981999446
 999750.810631355 453536.586834901 -621572.451097256
 898786.929949142 761360.758588383 -451731.425465699
 770593.603290016 953634.006794023 -297181.948599578
 643469.166423608 1069545.89329890 -183216.934011338
 529543.078318120 1139729.76736732 -110225.298825396
 436670.597889271 1181468.95186000 -70705.9802902385
 376783.932404485 1202703.51636046 -55565.7352596418
 13188.5198846276 -1261471.05015033 -8141.46760919518
 25492.4940244511 -1260908.31908822 -31776.9495308109
 53796.2457639424 -1257584.68240195 -84475.8039242599
 104685.875028430 -1244819.04941136 -176113.124755293
 187472.924200480 -1205727.86558905 -320349.259017003
 311825.496388769 -1102531.08825299 -527957.848844514
 477313.064404394 -867364.002941821 -781921.579104057
 648818.554430795 -435335.060853050 -990488.414438735
 749208.564168729 129568.641272766 -1006701.50764460
 737350.411461630 615748.879189560 -817751.257665263
 656194.031042947 916278.681020152 -566914.634888298
 557386.159026710 1073836.65508974 -357414.239825553
 463753.808174130 1153811.30560568 -212605.990930314
 382117.396891368 1195984.65967196 -123111.411905052
 316296.533026918 1218991.52048429 -74602.9965986532
 273803.350636220 1230265.76293581 -55020.9836997918
 -79606.0005330110 -1258734.53492175 -28278.7233341986
 -85018.5909681564 -1257624.53847514 -51978.7488685382
 -87215.7720422849 -1253989.60080768 -107018.321292304
 -79271.9110372790 -1242054.85079952 -206313.214905984
 -53280.2212636334 -1205329.31400313 -368635.177032525
 517.231546800927 -1102881.82737782 -612536.397473851
 90675.3245015173 -853398.854323920 -924682.546544552
 209180.246903421 -371415.277956579 -1187368.41229873
 310715.224789592 258548.037795121 -1195055.81131393
 351038.714830562 763617.566949923 -940855.707882213
 341533.429464944 1038847.11255879 -629047.712184962
 310193.509092260 1161149.36146492 -383486.086065192
 272010.222718013 1212037.19416615 -220285.518393060
 233405.689456835 1233838.12574719 -121304.140493188
 198922.618885534 1243958.23478430 -67432.4308253124
 174977.572944099 1248563.13685300 -44970.8036102341
 -174977.658101016 -1248563.12923258 -44970.6838439721
 -198922.722383294 -1243958.22518194 -67432.3026506410
 -233405.830290097 -1233838.11325235 -121303.996601232
 -272010.411761879 -1212037.18525788 -220285.333974470
 -310193.765613141 -1161149.37534411 -383485.836546382
 -341533.778258091 -1038847.19696972 -629047.383410707
 -351039.190760873 -763617.806394092 -940855.335971891
 -310715.833142710 -258548.479549272 -1195055.55756883
 -209180.896153627 371414.811348601 -1187368.44387671
 -90675.8776899569 853398.560144189 -924682.763799528
 -517.653632838134 1102881.69377995 -612536.637662378
 53279.9193872039 1205329.26389575 -368635.384500152
 79271.6910689429 1242054.83648933 -206313.385575150
 87215.6115622344 1253989.59990861 -107018.462611926
 85018.4771923129 1257624.54105502 -51978.8725445202
 79605.9147275936 1258734.53770601 -28278.8409480195
 -273803.425825397 -1230265.75192516 -55020.8557298838
 -316296.626679281 -1218991.50450069 -74602.8607052588
 -382117.517843510 -1195984.63715697 -123111.255214857
 -463753.959696003 -1153811.28189823 -212605.789078287
 -557386.344403323 -1073836.64832556 -357413.971053992
 -656194.265973473 -916278.737201686 -566914.272156358
 -737350.720331388 -615749.080493051 -817750.827586069
 -749208.982796471 -129569.039445646 -1006701.14484546
 -648819.065646758 435334.602915284 -990488.280837696
 -477313.565178845 867363.668557103 -781921.644336808
 -311825.906476207 1102530.90036058 -527957.999010657
 -187473.239961936 1205727.77424532 -320349.418027505
 -104686.109954058 1244819.00845217 -176113.274621150
 -53796.4174199216 1257584.66598739 -84475.9389714522
 -25492.6138882798 1260908.31350147 -31777.0750537860
 -13188.6080232957 1261471.04844208 -8141.58951353011
 -376784.002219138 -1202703.50129817 -55565.5878741626
 -436670.678847304 -1181468.93108966 -70705.8273682921
 -529543.176255662 -1139729.73831290 -110225.128737614
 -643469.277420987 -1069545.86224356 -183216.725470007
 -770593.723955915 -953633.993805790 -297181.677390660
 -898787.057247139 -761360.808925388 -451731.087347839
 -999750.969161305 -453536.763729066 -621572.067041426
 -1022766.52635670 -21491.7908240566 -738265.647589246
 -929861.829934208 449188.783556886 -724662.573117340
 -752616.473485504 823333.242835341 -589270.944472438
 -560717.336103583 1051991.81727886 -412866.463024286
 -397835.548136489 1169472.66979575 -256144.455646999
 -275162.104788333 1223350.45773569 -138740.421526256
 -189156.673958885 1245896.73890724 -59249.4691627245
 -133543.827953122 1254430.76994277 -10905.0609982190
 -104578.932803029 1257167.32542978 11957.9933290652
 -484266.926793167 -1164077.76549063 -44248.5075860058
 -558980.379645358 -1129682.02601251 -53934.0912109099
 -671404.932614885 -1064869.49584746 -82569.9957183736
 -802201.689606532 -964048.564799310 -136499.981024798
 -937305.122471879 -815828.919992867 -217788.226518797
 -1060398.22958986 -603470.920186926 -320823.743027831
 -1146102.79136634 -311697.858206240 -425255.532275467
 -1160179.52333588 51142.4316614972 -492866.468969866
 -1081352.05065318 429592.616258254 -487521.648261399
 -928885.879273481 747828.485475797 -411670.997905196
 -748330.214417241 969698.305726759 -302053.831261670
 -576922.287005199 1105112.12308749 -193487.211672245
 -432588.324602268 1180542.89166737 -103611.067316248
 -320373.638256627 1219640.33294966 -37250.7861876347
 -240757.483603543 1238364.19839744 6275.12034274312
 -195858.595176630 1245948.92586742 28286.3172615810
 -595280.523469052 -1112115.33467678 -19748.7132271342
 -680644.548786738 -1061930.75352532 -23989.6611687298
 -802560.716095094 -972446.256809850 -42355.7022890026
 -933837.316339967 -844492.013833596 -79564.6661602963
 -1056683.07314782 -675866.358734405 -134814.609642002
 -1156214.23124144 -462706.507578271 -201545.950687252
 -1216283.00099276 -203515.721382563 -266057.218592416
 -1219827.65937233 91225.1214882349 -308622.568129152
 -1157846.82817465 391535.440994884 -312474.241898101
 -1039643.35352212 658995.282249235 -276435.067184856
 -888640.826177353 869387.356398646 -214551.945933751
 -729106.761282673 1019387.27856871 -144230.155872904
 -578774.013696684 1118231.72027399 -78280.8518186958
 -448996.432740845 1178720.29334540 -23876.8582665154
 -348306.554292195 1212432.96788633 15436.1115050173
 -287523.499308482 1227806.90084073 37011.9239198615
 -705672.787973918 -1045603.19237869 17009.1539929989
 -796042.717393886 -978561.759948543 16801.9335054386
 -916385.432419439 -867039.564068630 5437.32545201529
 -1034867.10719996 -721218.979093428 -21040.0938681556
 -1135012.58205023 -547375.601630702 -60628.5431629145
 -1207581.91056069 -348928.056489404 -107445.668130781
 -1245684.80151677 -128551.347937348 -152621.614237834
 -1243203.87151565 107345.458972410 -185662.374231997
 -1197116.79573248 345363.687454881 -197951.336650475
 -1110740.98796821 568208.738465338 -186929.714325965
 -993245.495073855 761905.642024244 -156565.034685501
 -856371.991827120 919316.042003450 -114168.548419063
 -712268.811413063 1039074.86269731 -67424.0381299408
 -573479.548783291 1123449.03989152 -23084.4712542944
 -454745.648828916 1176684.31969218 13032.1748256439
 -377373.935656989 1203296.43161041 34871.7834267475
 -805809.412076315 -968792.962041752 60504.7025159582
 -895145.584017422 -886832.116828450 61584.1773074250
 -1004895.69237257 -760919.523313331 52302.5564443851
 -1104231.10898049 -609385.046968962 29545.7849667716
 -1181306.65746710 -442773.260230087 -3981.45301256146
 -1232409.45356262 -266194.555492836 -43090.9307674843
 -1256270.60533762 -81707.3673789356 -81593.5242504051
 -1251786.83742649 108499.373787504 -113168.151228459
 -1218199.50831705 299930.586418145 -132593.484703836
 -1156038.73568217 486139.659825151 -137084.294017983
 -1067303.05003909 660585.007738474 -126653.376770508
 -955223.752541010 817548.613628197 -103495.303540975
 -824915.525537248 951826.455016868 -71345.6808544257
 -685365.415407979 1058576.40918534 -35208.8653306925
 -552844.614881185 1133979.79568690 -1444.19172027305
 -457714.827393750 1175411.07986027 21339.1903447671
 -877768.779783435 -900985.633186568 96417.2647810203
 -961611.532244287 -810957.147598834 95922.8686607716
 -1058552.16130757 -681028.761415910 84950.4492886381
 -1141999.03775175 -532567.161588809 61317.5920129386
 -1203618.04697461 -376910.974919474 28127.2981502465
 -1242439.98224917 -218621.685372740 -9842.76955079451
 -1259308.44062162 -58520.5305325610 -47613.3364119937
 -1254736.48153449 103444.653894893 -80529.4753860943
 -1228643.29587275 266497.077018365 -104710.984937376
 -1180626.89531779 428788.253966566 -117516.799784220
 -1110034.60231331 587802.281855379 -117733.130561046
 -1016128.94651618 740200.658820783 -105519.569996005
 -899294.927262149 880917.899095819 -82472.5395033391
 -764057.229411758 1002528.35720005 -51989.1730300156
 -624265.025743252 1096104.32964713 -19947.6084165656
 -512481.054489195 1152778.20884123 3873.10332998687
 534954.273925685 -1141952.57336831 36299.8058548108
 650464.265043154 -1080856.31664364 13974.7483830896
 793485.173543080 -980580.778335292 -19800.1880197138
 928622.240429328 -852162.306463390 -55041.5201640030
 1041894.45110215 -706313.950729971 -84415.5595002078
 1129970.77495015 -551386.920474977 -103382.506289235
 1193898.40843673 -392590.776815594 -109674.533099177
 1235622.74484025 -232878.876328948 -102729.218395599
 1256625.63400720 -74033.6866361559 -83429.3720342134
 1257670.46289035 83023.7660846279 -54050.8275352971
 1238695.67421285 238445.380656819 -18062.6146706933
 1198599.72558935 393059.205198458 20312.3101801473
 1135614.79361564 546562.097421831 56553.9132342894
 1049680.31618455 694453.757782837 86340.2746981677
 948722.930160080 824695.763191258 106541.686122444
 860993.258483044 914676.941630889 116645.326586484
 477921.434844945 -1166810.74739394 41148.6670585363
 576931.193899065 -1121752.80644789 19247.5881979260
 713720.524666387 -1040138.15216163 -16280.9092706427
 854817.673597401 -926072.573130417 -56795.8195652473
 982977.098739297 -785075.004004434 -94671.4970857869
 1089748.59985517 -623441.641230003 -123765.665728020
 1171334.04783848 -447254.955289331 -139602.952198031
 1226066.82134615 -262364.295351241 -139551.270284276
 1253307.26762025 -74650.6535927015 -123278.561669869
 1253241.86645608 110655.839371952 -93217.7037559076
 1226514.34653957 290298.515294491 -54210.3372926486