# OOMMF OVF 2.0
#
# Segment count: 1
#
# Begin: Segment
# Begin: Header
#
# Title: Oxs_MinDriver::Magnetization
# Desc: Oxs vector field output
# Desc:  MIF source file: C:/Users/grl31/Documents/GitHub/phd-work/Skyrmions/stdprob3/drive-84/stdprob3.mif
# Desc:  Iteration: 539, State id: 1143
# Desc:  Stage: 0, Stage iteration: 539
# Desc:  Stage simulation time: -1 s
# Desc:  Total simulation time: -2 s
# meshunit: m
# meshtype: rectangular
# xbase: 3.1249999999999999e-09
# ybase: 3.1249999999999999e-09
# zbase: 3.1249999999999999e-09
# xnodes: 16
# ynodes: 16
# znodes: 16
# xstepsize: 6.2499999999999997e-09
# ystepsize: 6.2499999999999997e-09
# zstepsize: 6.2499999999999997e-09
# xmin: 0
# ymin: 0
# zmin: 0
# xmax: 9.9999999999999995e-08
# ymax: 9.9999999999999995e-08
# zmax: 9.9999999999999995e-08
# valuedim: 3
# valuelabels: Magnetization_x Magnetization_y Magnetization_z
# valueunits: A/m A/m A/m
#
# End: Header
#
# Begin: Data Text
 501892.130333662 -1157377.08180466 -11489.6014479143
 608587.494002350 -1104335.11828535 -40182.5781226261
 744483.891335797 -1015911.12538548 -72234.0070774238
 879033.576508324 -899394.272676112 -99696.2615515011
 997994.328971652 -762601.914073904 -118300.764622184
 1095832.06477137 -612337.000621826 -125478.740858121
 1171116.18841738 -453456.495268880 -120056.282818369
 1223665.89937141 -289403.373354661 -102161.074414177
 1253408.45635699 -123069.550623091 -73284.0921426604
 1260305.16975978 43108.4146071774 -36358.9684368314
 1244345.00041093 207689.960378043 4453.22685858644
 1205248.24657701 370093.902443779 44233.4535835428
 1142705.59198569 528907.881033200 77651.8792081433
 1058568.76986906 679069.443197452 99228.4318749189
 962249.073116681 809147.490713817 104434.144208567
 880170.894774127 898861.689059002 94320.1508346088
 447938.720007202 -1179196.96283887 19871.0057333233
 538962.615198586 -1140625.59913161 -6478.65286279445
 667456.942412012 -1069781.86747259 -40217.1228686072
 805433.288558561 -968169.022582325 -73995.8938906886
 936852.083492202 -838631.933249698 -102733.076996401
 1052227.22081292 -685161.009617652 -122154.400653421
 1145620.36267549 -512321.463077977 -128957.876889615
 1212792.31936092 -325540.802990382 -121274.097013716
 1250742.74854038 -131577.545768755 -99394.9563211493
 1258269.22927871 62432.2531694810 -66409.2714422973
 1235996.89097044 251175.806797334 -27781.8377733192
 1185327.87078802 431794.499298582 10038.9256191157
 1108083.09887775 601697.640266890 40758.1476233318
 1008752.88712062 755318.873326400 58825.5322263206
 900015.141624319 881961.463287422 60548.7658158339
 812062.304838081 964238.445721294 48460.9510121145
 368418.263691161 -1205883.28361399 40778.9185497405
 442230.424312442 -1181395.84495784 16897.9361979882
 556742.212984369 -1131927.77120776 -18084.7993867403
 692860.952973278 -1052610.69125846 -59193.4406188329
 836722.134779974 -938666.289657554 -101740.339829965
 976130.810885823 -786868.963871307 -139840.282660024
 1098684.74091297 -597249.644840989 -166535.680084681
 1191524.25776796 -375721.670797794 -175078.839847604
 1243725.29244182 -136000.846520878 -161865.986560043
 1250594.43889117 103619.880968259 -129714.689228151
 1214924.45783170 328450.152911849 -87341.2258529274
 1143358.73837056 531276.125930471 -45010.0469554976
 1043455.90908123 708959.762294284 -11191.6115926602
 925141.281779641 857666.953618611 8392.63585828894
 805510.744952153 970863.404544629 11230.3339929968
 715738.734686555 1038877.62149098 884.394423525501
 278626.959920142 -1229576.01381735 45379.2283940704
 335964.711116818 -1215785.39940248 23302.4977823171
 432185.912735763 -1185153.82303598 -13235.6901942508
 558364.286441751 -1129546.48639029 -62477.9131269927
 707279.252287408 -1037516.10211782 -121925.502045120
 868929.486972673 -895574.525242712 -185626.634200623
 1026375.19537833 -692406.537761414 -242232.482743972
 1154181.52299743 -428370.122728241 -275524.011374833
 1225436.69029268 -126363.989031384 -271820.696930081
 1227827.71560557 173192.441726273 -232363.744673414
 1170303.28380151 437862.358565505 -173828.104154071
 1071277.40572605 656260.377181445 -115049.851114551
 947949.985757430 829607.539175759 -68495.1557716563
 815934.737002537 961354.230008345 -39974.7459856463
 693673.967511494 1053296.81548708 -30523.3713830966
 608039.967270188 1104782.43912921 -35952.6259504818
 186323.953710229 -1247200.41347254 36386.0388977221
 227778.009196189 -1240737.88025794 15366.2597465668
 302700.556269416 -1224484.21489249 -23668.7902575760
 410600.955313285 -1190015.20667511 -82583.8622054522
 552668.424991461 -1122300.42621353 -162938.013543013
 726399.917481514 -997723.262358488 -261612.084106487
 916438.678704343 -787011.717503777 -363733.605273622
 1084513.68242835 -474024.335692299 -436669.706661824
 1177640.33937130 -91500.0067713427 -443103.160409910
 1170080.31654466 279255.821571349 -380102.183461526
 1084778.37350886 577831.746029343 -284456.999504500
 959695.794853186 795845.696815185 -192777.174792086
 821954.586819021 949122.226134944 -122910.894483662
 688618.253102338 1054085.75002308 -79104.7660480344
 574410.642163565 1121635.76153595 -59456.4002598204
 498603.325146289 1157381.98226301 -58404.6419813401
 93957.1040420204 -1257929.97696533 18266.5423926638
 119514.334928739 -1255890.43926403 -2226.93302374895
 170263.196839582 -1249228.97729022 -44573.9500083370
 251355.548870816 -1230952.80282486 -114564.463025963
 371053.177585716 -1185586.41516901 -219667.527161347
 536810.300128171 -1082137.03898891 -363818.033422721
 742863.114121772 -869551.861691764 -532525.477723502
 945490.391400542 -501012.703577540 -668269.123588788
 1059864.69940162 -18268.8208394605 -684033.990432054
 1041468.07769373 427299.485148468 -569481.188500311
 935507.074303582 741425.623635763 -408245.011559513
 800902.363160650 937416.757905405 -267122.926011150
 668102.750128887 1057085.78433831 -166606.694760515
 549553.251288178 1130737.99321483 -104748.487426041
 453480.380214424 1174909.24261378 -74116.4441959847
 391777.086956624 1197342.26165008 -66570.6656224439
 1273.45334465617 -1261557.38311914 -4558.32569263792
 10277.3600474493 -1261284.52162959 -24600.0464844412
 33588.9255060890 -1259166.00334319 -70158.3282799157
 78909.3791163794 -1250025.33551282 -150862.193350369
 157554.329983972 -1219717.66798993 -281095.845603331
 283935.542179439 -1133388.19396293 -475774.358905224
 466154.242608964 -919190.844923258 -727556.075932215
 672429.273260388 -489417.470334807 -948608.898921225
 802463.928512484 104089.828849367 -967866.923644658
 793219.906401361 609357.180231727 -768788.291994362
 702083.731394049 910102.518265401 -519943.527008211
 593230.791744109 1065391.01146049 -323370.764517762
 491554.980723718 1145727.13233749 -192957.171596102
 403716.889723853 1189665.23871720 -115146.531248669
 333612.739840761 1214322.50577046 -75318.1433272069
 288718.129656632 1226501.06403223 -62341.0976349180
 -92802.5550157086 -1257835.86450223 -28036.6665893200
 -101331.196722735 -1256608.98005143 -47066.8752287758
 -108575.774810953 -1253349.84923685 -94206.6211108942
 -106940.185616304 -1243801.81739699 -181852.321016964
 -87142.4190229611 -1214609.77276418 -329664.571392693
 -35831.4469546214 -1128786.85699211 -562232.843055225
 63808.1670234402 -900416.713983113 -881321.558751354
 212604.642946709 -411537.058803479 -1173450.44460677
 349387.611143716 265076.931804298 -1182882.89713034
 401298.283128507 787492.550108100 -900202.534100692
 386923.339543313 1050852.62920284 -580989.252855065
 347024.544327119 1162336.57220994 -346550.269739850
 300702.749711370 1209117.17447610 -197896.300172331
 255373.621748056 1230474.10537657 -110757.483864372
 216012.371319553 1241220.97701920 -65257.7394901359
 189237.828346600 1246351.27641148 -48445.5470510884
 -189237.812490934 -1246351.28065707 -48445.4997609254
 -216012.350997393 -1241220.98358360 -65257.6819024950
 -255373.600126786 -1230474.11708133 -110757.403680964
 -300702.726896007 -1209117.19816780 -197896.190087428
 -347024.519677740 -1162336.62369537 -346550.121739748
 -386923.329748157 -1050852.74272411 -580989.054049008
 -401298.298546637 -787492.790159635 -900202.317231588
 -349387.675140412 -265077.332890267 -1182882.78834664
 -212604.742754221 411536.667403390 -1173450.56379034
 -63808.2445353361 900416.496290444 -881321.775548700
 35831.4001376975 1128786.76080829 -562233.039145744
 87142.4000758539 1214609.73319510 -329664.722188640
 106940.178323252 1243801.80206616 -181852.430162832
 108575.775088689 1253349.84410756 -94206.6890321669
 101331.198270820 1256608.97814179 -47066.9228799705
 92802.5563404584 1257835.86350348 -28036.7070120404
 -288718.097765939 -1226501.07468470 -62341.0357521002
 -333612.698955842 -1214322.52092174 -75318.0801443173
 -403716.843260900 -1189665.26197061 -115146.453904617
 -491554.930439056 -1145727.17128250 -192957.068450477
 -593230.732837555 -1065391.08424948 -323370.632769397
 -702083.679060589 -910102.651070396 -519943.365214268
 -793219.878298488 -609357.422211205 -768788.129192433
 -802463.967263357 -104090.191451919 -967866.852519710
 -672429.382259706 489417.141406219 -948608.991360798
 -466154.352704196 919190.654563864 -727556.245891918
 -283935.625219118 1133388.10448121 -475774.522511326
 -157554.383536250 1219717.63117259 -281095.975343275
 -78909.4113581831 1250025.32179308 -150862.290166145
 -33588.9406436734 1259165.99930688 -70158.3934742451
 -10277.3737991518 1261284.52060342 -24600.0933524372
 -1273.46347009864 1261557.38298272 -4558.36061924041
 -391777.041853101 -1197342.27982612 -66570.6041475641
 -453480.325912146 -1174909.26803418 -74116.3734740997
 -549553.187724945 -1130738.03156878 -104748.406881772
 -668102.679563704 -1057085.84296103 -166606.605781748
 -800902.290212612 -937416.849963114 -267122.821668943
 -935507.009194510 -741425.769724338 -408244.895443372
 -1041468.04385496 -427299.706912353 -569481.083988302
 -1059864.72851965 18268.5339109391 -684033.952978699
 -945490.485555006 501012.444696831 -668269.184462981
 -742863.225024427 869551.697566868 -532525.591013088
 -536810.390095835 1082136.95350720 -363818.154932185
 -371053.242121261 1185586.37575305 -219667.630885859
 -251355.586264037 1230952.78770787 -114564.543411302
 -170263.221078897 1249228.97184842 -44574.0099311771
 -119514.349889189 1255890.43775542 -2226.98092074829
 -93957.1146549345 1257929.97677829 18266.5006844580
 -498603.271393962 -1157382.00866269 -58404.5777153231
 -574410.579440765 -1121635.79702194 -59456.3367894865
 -688618.179472435 -1054085.80329690 -79104.6971232263
 -821954.512193309 -949122.300433268 -122910.819801487
 -959695.723414835 -795845.802548989 -192777.093928160
 -1084778.31538159 -577831.894203096 -284456.920180359
 -1170080.29102525 -279256.017534790 -380102.118047003
 -1177640.36508439 91499.7890864866 -443103.137023403
 -1084513.75570074 474024.142293306 -436669.734625533
 -916438.766478133 787011.584140888 -363733.672682419
 -726399.996045612 997723.184740869 -261612.161977280
 -552668.480163623 1122300.38780672 -162938.090947057
 -410600.989837515 1190015.19035159 -82583.9257718337
 -302700.570445571 1224484.21028956 -23668.8470870816
 -227778.014564220 1240737.87995576 15366.2045741801
 -186323.953264120 1247200.41496860 36385.9899019254
 -608039.903853368 -1104782.47591537 -35952.5680758533
 -693673.897597621 -1053296.86322801 -30523.3128068679
 -815934.663648553 -961354.294700610 -39974.6874455346
 -947949.911879193 -829607.628942390 -68495.0909756997
 -1071277.34214335 -656260.491235653 -115049.792578525
 -1170303.24059316 -437862.497801752 -173828.044328014
 -1227827.70224795 -173192.604499212 -232363.693933128
 -1225436.71377286 126363.824066144 -271820.667764433
 -1154181.57571222 428369.979006160 -275524.014001825
 -1026375.25565156 692406.436061007 -242232.518061577
 -868929.539832135 895574.463834697 -185626.683031461
 -707279.286343934 1037516.07198847 -121925.560869684
 -558364.301747286 1129546.47589720 -62477.9660475441
 -432185.916233759 1185153.82117506 -13235.7426046931
 -335964.701331496 1215785.40320617 23302.4404088724
 -278626.949230496 1229576.01834058 45379.1714688349
 -715738.663180948 -1038877.67070111 884.457766576299
 -805510.669507628 -970863.466409776 11230.3971042645
 -925141.209397012 -857667.031173391 8392.68923580597
 -1043455.84455526 -708959.858087462 -11191.5594548154
 -1143358.68745741 -531276.239936109 -45009.9946008552
 -1214924.42718220 -328450.279267449 -87341.1770248683
 -1250594.43304531 -103620.011561446 -129714.641267009
 -1243725.31003067 136000.720471584 -161865.957320516
 -1191524.29122908 375721.568334415 -175078.832010956
 -1098684.78022007 597249.568216632 -166535.695563381
 -976130.838900294 786868.923948347 -139840.311752845
 -836722.148186087 938666.273138551 -101740.381982753
 -692860.951381961 1052610.68980559 -59193.4850809688
 -556742.196306785 1131927.77851725 -18084.8553064642
 -442230.396762168 1181395.85617005 16897.8733205751
 -368418.237045885 1205883.29385673 40778.8563865942
 -812062.232662687 -964238.502805061 48461.0246497222
 -900015.066707126 -881961.535036379 60548.8343025412
 -1008752.81908884 -755318.959390768 58825.5937846830
 -1108083.04455485 -601697.736537657 40758.2032780783
 -1185327.83150414 -431794.606051588 10038.9723274712
 -1235996.86907540 -251175.919549102 -27781.7924804780
 -1258269.22619113 -62432.3620405452 -66409.2275920379
 -1250742.76206010 131577.445218996 -99394.9193011162
 -1212792.34133731 325540.727398726 -121274.080154147
 -1145620.38675257 512321.408460257 -128957.879980791
 -1052227.23385792 685160.985385228 -122154.424203946
 -936852.081721332 838631.931008816 -102733.111438259
 -805433.269225555 968169.035209381 -73995.9391137325
 -667456.904231129 1069781.88926484 -40217.1768538279
 -538962.563560178 1140625.62317571 -6478.71550651400
 -447938.667812204 1179196.98382126 19870.9371801790
 -880170.818321692 -898861.754776463 94320.2379876890
 -962248.999839449 -809147.567506112 104434.224399269
 -1058568.70968803 -679069.526832064 99228.5015327752
 -1142705.54426182 -528907.975888910 77651.9354127645
 -1205248.21407451 -370094.002415915 44233.5027430532
 -1244344.98357706 -207690.060161271 4453.27696949760
 -1260305.16773432 -43108.5106833981 -36358.9247335228
 -1253408.46665799 123069.466768867 -73284.0567808135
 -1223665.91634553 289403.307775829 -102161.056873969
 -1171116.20539324 453456.451733839 -120056.281656776
 -1095832.07221144 612336.983499584 -125478.759439091
 -997994.318526409 762601.923252464 -118300.793571326
 -879033.548529939 899394.294634166 -99696.3101490079
 -744483.845710533 1015911.15471687 -72234.0647952168
 -608587.428686652 1104335.15200224 -40182.6407260286
 -501892.055351186 1157377.11359274 -11489.6747588692
 513350.351140933 -1152288.51850292 15875.0757091845
 626851.702236505 -1094773.27103019 -8823.79510211846
 767921.781701592 -1000037.81210967 -42070.6840699145
 903523.783778271 -877360.976693422 -73701.5579313952
 1019937.83201270 -736036.584175416 -97603.2607220405
 1112983.65058089 -583654.573090493 -110291.267873467
 1182613.83166567 -425241.943079807 -110196.397026918
 1229801.48401743 -263974.350942505 -97238.2788410425
 1255320.28662827 -102151.825235428 -72700.8493729441
 1259592.46752293 58615.9235623274 -39248.1870076276
 1242620.81136015 217812.809059209 -728.219296983407
 1203697.94870232 375760.952506914 38267.2938667069
 1141655.11505035 531858.955739746 72794.7827647134
 1057059.67065508 681592.855201174 98007.4656964390
 958016.887277197 813342.879121130 110573.213725637
 871693.656362268 905037.440792888 112280.145795209
 457465.169109412 -1175258.87791903 32274.1358235498
 553760.421354946 -1133498.55107388 8936.51907402097
 687417.490420465 -1057519.98831717 -25653.4421205908
 827628.520097767 -950082.991515537 -62632.0434970958
 958028.841607296 -815243.761467689 -95434.6842377007
 1069743.22600949 -658065.896304439 -118945.943380991
 1157877.42439269 -483856.276690067 -129431.080148204
 1219429.56934979 -298284.554044913 -124768.910921616
 1252563.25464738 -107722.753373642 -105026.341608732
 1256802.67601268 81631.2835792789 -73026.0092537465
 1232827.10007253 265580.187710128 -33969.6355816664
 1181507.63064262 442215.602731127 5874.55133252493
 1103756.41808029 609626.026634783 40339.9072261171
 1002938.82528464 762591.858144501 64162.3062813087
 890859.188731952 890155.916842844 74443.1358855857
 799137.418369414 973369.189509264 74035.3860994921
 376145.009018969 -1203365.66716473 44445.8569301933
 454124.443325734 -1176784.00499397 22356.7994890559
 573600.776917819 -1123535.59037374 -14119.3768189501
 713088.382565629 -1039034.67276460 -58833.1399965184
 857718.289199895 -919054.849732159 -105862.885256161
 994860.237653646 -761437.969558891 -148373.707134113
 1112369.72115824 -567679.580025913 -178669.887756462
 1198595.96929259 -344975.617012733 -189496.588310179
 1244480.69930928 -107247.900088112 -176960.752406681
 1246767.25243425 128367.701238513 -143675.267374887
 1208419.93787826 348733.568297352 -98262.8261340558
 1135333.37192604 547676.162783917 -51170.1693205196
 1034097.36642672 722541.328847557 -11229.2375291160
 913784.675902806 869656.352130567 15646.9231196727
 791075.013002702 982344.532052054 27367.4088864967
 698613.515207143 1050102.62792475 27803.9226442621
 285908.368928502 -1227907.65921620 45261.6386555009
 346869.927896228 -1212711.77611667 23681.8940999297
 447830.788986651 -1179302.69931571 -15561.4504861811
 578049.700595784 -1119165.60335461 -69830.7011850452
 729026.694454877 -1020627.86900997 -135603.328466955
 889346.430145303 -870796.411758413 -205732.757176469
 1041135.24862691 -660348.844277652 -267443.879807907
 1159927.65413526 -392552.406301228 -303347.781264919
 1222094.85055052 -91704.6034427646 -299372.465140432
 1218275.72836766 203569.562259033 -256735.494061240
 1157551.28841362 463299.588341821 -192296.482165484
 1056965.87417079 677168.496852134 -125759.288437679
 932580.510413855 846663.992551169 -70732.6390890570
 799330.709963177 975440.099773857 -33711.4043297642
 675306.699583114 1065490.92760944 -15471.7678072647
 588292.673878087 1115945.31920928 -11278.5333803826
 194481.452830684 -1245981.98505489 35430.0485815848
 239281.732838160 -1238591.36685891 13605.4838762413
 318788.679882051 -1220267.76483583 -29492.2125411914
 431091.736217558 -1181794.46328685 -95242.8077517088
 575922.724237546 -1107173.67691852 -184469.227147735
 748386.877800909 -972560.517356498 -292562.048348077
 930509.949893339 -751015.043677637 -402090.870622957
 1084553.30636385 -432023.456225374 -478172.866069657
 1164036.75991440 -51825.4593401368 -483613.455407446
 1149291.15291571 312609.894844673 -415877.783001018
 1062141.28897365 605257.690828311 -311558.085867687
 937338.720627842 818083.779354317 -209008.334015825
 800425.035074195 966636.879624516 -128383.554613536
 667814.271868304 1067678.17245204 -75078.9536250857
 553742.077375573 1132572.25422800 -46895.9658782739
 477845.293197422 1166967.24755316 -37426.5925007634
 103926.939650061 -1257145.50078314 18270.5225601796
 132646.880767917 -1254566.08481855 -4263.18713490581
 187925.866827941 -1246410.71902602 -51900.0866371993
 273739.965113166 -1224587.72903492 -130386.948410879
 396662.862237903 -1171890.90763797 -246738.130891119
 560608.926890421 -1055925.24594667 -402851.010898802
 754638.973700157 -828269.392826022 -579688.936585252
 934465.014169118 -452935.913867083 -716361.379571968
 1028417.70591509 21284.8429640436 -730378.948587172
 1003979.38800072 456100.342745295 -612819.138683087
 900629.701827824 764593.689383958 -442506.566345298
 770279.394826872 956569.904636101 -288432.145172105
 641404.266057325 1072090.24951731 -175420.908937109
 526040.333613660 1141991.20501336 -103378.363320005
 432004.179843706 1183535.24293038 -64545.7067375567
 371318.407990745 1204656.91751252 -49737.1279369483
 13585.9874028870 -1261490.81335083 -2404.09997713459
 25583.3091504804 -1261046.71385268 -25614.6577806383
 53456.9504659024 -1258053.43181365 -77416.7169784908
 103987.975973278 -1246028.25555172 -167778.181354614
 186757.228459513 -1208358.81855025 -310709.082855527
 311863.465879680 -1107315.50134086 -517825.250503200
 479372.486151807 -873892.629001908 -773345.410160118
 653758.136106697 -440044.760345887 -985144.831629027
 755290.066967067 130750.482590015 -1001993.34177544
 741506.276822734 620570.738607188 -810314.649217185
 657666.956388606 920857.532868886 -557714.093019110
 556848.936371005 1077058.56062691 -348444.471848420
 461837.864609178 1155992.59777259 -204783.621481703
 379183.185797441 1197581.29147049 -116484.303008259
 312571.578178180 1220290.94814339 -68836.3371590145
 269536.736621917 1231435.04437608 -49670.0112003918
 -77970.9967466466 -1258946.26783861 -22896.4905724605
 -83723.5669029468 -1257939.65423426 -46126.1484299664
 -86398.9242968374 -1254610.79549132 -100181.877782047
 -78943.3956850707 -1243414.69924623 -198083.964255237
 -53316.3634084046 -1208220.94829268 -359038.906552759
 454.984882430302 -1108262.62361275 -602746.365406461
 91283.0614978893 -860836.434932566 -917702.275193385
 211284.722969926 -376086.913186157 -1185523.86331469
 313784.164785919 261746.473027793 -1193556.74884191
 353222.767893076 770445.216453955 -934450.253145733
 342246.358557662 1044226.53462928 -619683.633275153
 309753.344472531 1164301.52090326 -374171.437885605
 270718.546455349 1213757.24604673 -212259.857705367
 231424.545769645 1234848.65571676 -114633.799591442
 196368.653408870 1244659.91932117 -61728.9892414056
 172022.214323068 1249151.35458426 -39732.6319120929
 -172022.199130438 -1249151.35845442 -39732.5760146717
 -196368.635176649 -1244659.92539244 -61728.9248238281
 -231424.528884141 -1234848.66685636 -114633.713683078
 -270718.527463067 -1213757.27073519 -212259.740753260
 -309753.326679924 -1164301.57570112 -374171.282101607
 -342246.347409587 -1044226.65227633 -619683.441185505
 -353222.774704773 -770445.453666564 -934450.054991350
 -313784.208986365 -261746.840347454 -1193556.65666858
 -211284.789733367 376086.558826847 -1185523.96383037
 -91283.1162659136 860836.211965404 -917702.478896505
 -455.016774136103 1108262.51906627 -602746.557610716
 53316.3416117457 1208220.90264611 -359039.063397150
 78943.3870469332 1243414.68066186 -198084.084355818
 86398.9189949968 1254610.78948533 -100181.957569480
 83723.5645402926 1257939.65235450 -46126.2039827023
 77970.9984897262 1258946.26684173 -22896.5394487964
 -269536.704388387 -1231435.05396339 -49669.9484253944
 -312571.537795254 -1220290.96270188 -68836.2624448661
 -379183.143078044 -1197581.31348145 -116484.215773915
 -461837.817419536 -1155992.63584774 -204783.512973834
 -556848.883937453 -1077058.63234950 -348444.333944438
 -657666.911831821 -920857.661765085 -557713.932737106
 -741506.248703383 -620570.970118352 -810314.497648388
 -755290.089457838 -130750.809125948 -1001993.28221233
 -653758.213605423 440044.450497154 -985144.918602871
 -479372.574217793 873892.434654534 -773345.575186366
 -311863.539272781 1107315.40117004 -517825.420506601
 -186757.278782652 1208358.77400455 -310709.225847682
 -103988.006157352 1246028.23918258 -167778.284214415
 -53456.9730552831 1258053.42632246 -77416.7906144586
 -25583.3230041924 1261046.71250062 -25614.7105079208
 -13585.9959942944 1261490.81316945 -2404.14659852930
 -371318.361629335 -1204656.93458776 -49737.0604828124
 -432004.124946132 -1183535.26693378 -64545.6340309498
 -526040.271500414 -1141991.24105614 -103378.281228556
 -641404.201028248 -1072090.30376373 -175420.815179007
 -770279.326886623 -956569.993144481 -288432.033078179
 -900629.644673373 -764593.827350851 -442506.444282392
 -1003979.35255598 -456100.555728631 -612819.038235803
 -1028417.72582528 -21285.1134586940 -730378.912669558
 -934465.089594911 452935.666569791 -716361.437541349
 -754639.067562219 828269.224945969 -579689.054265459
 -560609.011474020 1055925.15339411 -402851.135784301
 -396662.924417001 1171890.86282341 -246738.243778501
 -273740.005978264 1224587.70963171 -130387.044850827
 -187925.892528615 1246410.71231355 -51900.1547812215
 -132646.896489706 1254566.08298013 -4263.23896808459
 -103926.943990543 1257145.50114571 18270.4729230831
 -477845.234361483 -1166967.27372644 -37426.5276034986
 -553742.011574643 -1132572.28912616 -46895.9000312312
 -667814.199092827 -1067678.22287129 -75078.8839512805
 -800424.959717572 -966636.952437346 -128383.476205922
 -937338.651974349 -818083.880977202 -209008.244141571
 -1062141.23752634 -605257.827934420 -311557.994904749
 -1149291.12916488 -312610.076864057 -415877.711815529
 -1164036.78007953 51825.2497133633 -483613.429335019
 -1084553.36711748 432023.265075792 -478172.900974469
 -930510.028065148 751014.905407032 -402090.947977715
 -748386.954063127 972560.431937908 -292562.137221854
 -575922.778298661 1107173.63469589 -184469.311783793
 -431091.768898357 1181794.44529922 -95242.8830251870
 -318788.702018110 1220267.75745447 -29492.2786777419
 -239281.734820157 1238591.36711905 13605.4253357674
 -194481.453841165 1245981.98643966 35429.9943362797
 -588292.600253807 -1115945.35862691 -11278.4735056906
 -675306.626074760 -1065490.97511293 -15471.7048631472
 -799330.632613597 -975440.165232093 -33711.3443292631
 -932580.438482273 -846664.077256092 -70732.5735659027
 -1056965.81474534 -677168.602638463 -125759.218267822
 -1157551.24761247 -463299.716460593 -192296.419096408
 -1218275.71474551 -203569.713090462 -256735.439105209
 -1222094.86817601 91704.4446417979 -299372.441834188
 -1159927.69793633 392552.266718444 -303347.794409809
 -1041135.30558822 660348.736003471 -267443.925403626
 -889346.484001263 870796.343400422 -205732.813702622
 -729026.731569963 1020627.83427986 -135603.390328461
 -578049.726532144 1119165.58608440 -69830.7632740052
 -447830.791464248 1179302.69755613 -15561.5125325846
 -346869.923010191 1212711.77876961 23681.8298132005
 -285908.359254388 1227907.66370985 45261.5778563449
 -698613.436144452 -1050102.67879365 27803.9879836487
 -791074.932387730 -982344.595282446 27367.4694860470
 -913784.600026432 -869656.430808542 15646.9813968926
 -1034097.30232727 -722541.421547121 -11229.1757079953
 -1135333.32393503 -547676.267140118 -51170.1171881779
 -1208419.90960471 -348733.681365185 -98262.7725611063
 -1246767.24473196 -128367.825399113 -143675.223280572
 -1244480.71397086 107247.783069820 -176960.720218209
 -1198595.99908856 344975.516270171 -189496.583246189
 -1112369.75425957 567679.507824822 -178669.911074107
 -994860.266894199 761437.923050996 -148373.749746849
 -857718.306606615 919054.827696123 -105862.935531202
 -713088.383886195 1039034.66868851 -58833.1959771082
 -573600.766193017 1123535.59508595 -14119.4375457340
 -454124.423969457 1176784.01370606 22356.7340909737
 -376144.987800690 1203365.67624647 44445.7906134961
 -799137.331001313 -973369.255245346 74035.4648946861
 -890859.105455683 -890155.994028536 74443.2095004130
 -1002938.75905233 -762591.939764524 64162.3714938170
 -1103756.36643515 -609626.116448266 40339.9630272324
 -1181507.59369958 -442215.700733673 5874.60414049232
 -1232827.08044307 -265580.284636891 -33969.5901853846
 -1256802.67200345 -81631.3842393309 -73025.9657320822
 -1252563.26451135 107722.665933680 -105026.313654052
 -1219429.58767132 298284.481635644 -124768.904964582
 -1157877.44429289 483856.226917332 -129431.088189937
 -1069743.23978768 658065.868471142 -118945.973453649
 -958028.842213786 815243.755826964 -95434.7263348752
 -827628.506734595 950082.999533460 -62632.0984537575
 -687417.462420982 1057520.00499350 -25653.5049495317
 -553760.381980570 1133498.57082880 8936.45325406514
 -457465.128270515 1175258.89570636 32274.0669651225
 -871693.567081503 -905037.515464677 112280.237037521
 -958016.806443342 -813342.963266069 110573.295133248
 -1057059.60509869 -681592.945922229 98007.5418354180
 -1141655.07006621 -531859.044025686 72794.8432180861
 -1203697.91965047 -375761.040694005 38267.3417504970
 -1242620.79569477 -217812.898589787 -728.171521647272
 -1259592.46499356 -58616.0056997692 -39248.1455128236
 -1255320.29463977 102151.750539114 -72700.8159945950
 -1229801.49712022 263974.294073496 -97238.2675093902
 -1182613.84551061 425241.904119076 -110196.398792050
 -1112983.65787367 583654.554865568 -110291.290724964
 -1019937.82674153 736036.586302338 -97603.2997655093
 -903523.765320477 877360.991619095 -73701.6065307866
 -767921.742919041 1000037.83927800 -42070.7461703346
 -626851.647904156 1094773.30158529 -8823.86394098050
 -513350.292427649 1152288.54566340 15875.0028764831
 535355.745722911 -1141226.83875574 50447.5861068309
 652726.740639218 -1079238.62235775 27225.5208361530
 797162.492445083 -977761.909923322 -7939.71415053950
 932722.453899860 -848284.898532125 -44620.4642772632
 1045581.66412337 -701897.079064731 -75159.1974966994
 1132800.23104968 -547093.729175671 -94876.3350335324
 1195788.52860399 -389017.292091774 -101512.424026023
 1236730.17812726 -230439.622223569 -94580.5367807057
 1257219.91135659 -72922.7628031404 -75031.9670049982
 1258032.74878901 82846.4355397841 -45160.8460027571
 1239023.91414340 237273.433463725 -8395.76512672982
 1198893.77817034 391452.558615009 31113.2437583260
 1135539.20306102 545302.193110754 68888.8047442555
 1048473.12248072 694367.721204837 100533.626728966
 945367.988361064 826308.632292581 122649.262940606
 855085.281749981 917803.322810373 134222.399366677
 477237.598119375 -1166581.76922890 53671.9811724604
 577566.077908374 -1121155.89129183 31246.1836088049
 715670.567219615 -1038911.92925458 -5203.20930070139
 857543.926425406 -924111.250555440 -46757.2643202301
 985837.684492589 -782534.304744173 -85519.3115722908
 1092245.53104885 -620710.187716750 -115186.777398318
 1173225.31019392 -444817.571528527 -131259.782487970
 1227358.93323469 -260642.446944733 -131167.811518748
 1254171.43987440 -73883.4744381166 -114650.174562853
 1253897.19824803 110485.115395367 -84168.2031455891
 1227091.33145551 289504.582641685 -44535.2873030618