# OOMMF OVF 2.0
#
# Segment count: 1
#
# Begin: Segment
# Begin: Header
#
# Title: Oxs_MinDriver::Magnetization
# Desc: Oxs vector field output
# Desc:  MIF source file: C:/Users/grl31/Documents/GitHub/phd-work/Skyrmions/stdprob3/drive-139/stdprob3.mif
# Desc:  Iteration: 476, State id: 1026
# Desc:  Stage: 0, Stage iteration: 476
# Desc:  Stage simulation time: -1 s
# Desc:  Total simulation time: -2 s
# meshunit: m
# meshtype: rectangular
# xbase: 3.1249999999999999e-09
# ybase: 3.1249999999999999e-09
# zbase: 3.1249999999999999e-09
# xnodes: 16
# ynodes: 16
# znodes: 16
# xstepsize: 6.2499999999999997e-09
# ystepsize: 6.2499999999999997e-09
# zstepsize: 6.2499999999999997e-09
# xmin: 0
# ymin: 0
# zmin: 0
# xmax: 9.9999999999999995e-08
# ymax: 9.9999999999999995e-08
# zmax: 9.9999999999999995e-08
# valuedim: 3
# valuelabels: Magnetization_x Magnetization_y Magnetization_z
# valueunits: A/m A/m A/m
#
# End: Header
#
# Begin: Data Text
 502149.427423069 -1157285.62657023 -9239.15534990108
 609176.945311049 -1104082.42056119 -38143.0049707792
 745324.442132480 -1015421.15648019 -70432.8179991060
 879948.102602528 -898675.099137659 -98101.1408449649
 998822.966250199 -761741.127196846 -116844.204593061
 1096479.34750114 -611462.464590516 -124081.125959246
 1171555.05421867 -452693.319389081 -118646.299706856
 1223920.12920835 -288844.813965180 -100685.757100894
 1253529.77392532 -122762.616657454 -71706.8807932383
 1260351.21534795 43169.9074975963 -34649.7327052451
 1244356.74795174 207570.816444952 6330.15847276388
 1205223.41434576 369918.701546508 46326.0906815788
 1142570.36854264 528847.846302443 80014.6193427578
 1058164.92804336 679303.261702114 101899.433849379
 961378.630261456 809793.582162579 107400.719196186
 878767.595302984 899895.918482541 97489.8982604275
 447944.467404729 -1179156.78203537 22010.6433446300
 539182.660370641 -1140531.19788694 -4480.66079691316
 667892.026688098 -1069577.45368263 -38389.3498147508
 805997.262290269 -967825.750095971 -72326.7692539601
 937433.950235274 -838170.776985020 -101176.916703226
 1052733.05663802 -684651.013236368 -120646.311402140
 1145998.70541960 -511856.026457063 -127435.498489037
 1213039.41394724 -325205.131360904 -119693.081111811
 1250890.32827947 -131421.096234975 -97730.8190911818
 1258361.83068843 62414.1296977236 -64648.3596039971
 1236062.43055791 251053.493132628 -25908.3436005578
 1185343.33639837 431700.558761514 12051.2795971296
 1107946.84481128 601796.724800556 42940.9130203051
 1008287.98465664 755751.154014029 61196.1119881403
 899039.037950150 882778.768894129 63086.3245909025
 810563.181632947 965363.081228540 51096.7797514504
 368206.989516494 -1205881.26638412 42701.4657122559
 442114.898732095 -1181411.14764193 18749.5990744184
 556752.774499484 -1131949.59359085 -16306.3354434226
 692997.196761608 -1052616.00555834 -57479.2226974664
 836956.625201601 -938637.319631066 -100065.082051180
 976416.956040438 -786809.920666325 -138164.784285758
 1098975.61418286 -597189.914446691 -164821.832393360
 1191790.50272229 -375699.518512792 -173305.223029078
 1243958.24848969 -136040.790698602 -160031.903692725
 1250795.76872974 103526.511086325 -127834.413789934
 1215082.65530114 328367.337802733 -85431.0433602514
 1143413.24102051 531319.333653476 -43073.8536000102
 1043278.44571269 709249.244956087 -9220.85459643399
 924564.423963855 858266.728546632 10405.7450093705
 804411.031615925 971748.925838879 13279.6183884055
 714169.345470764 1039953.30653210 2949.09168382055
 278327.113121774 -1229580.92216132 47055.3384555677
 335669.631946908 -1215833.85800084 24967.1553522857
 431913.633858907 -1185270.72141965 -11548.1925468223
 558153.593867782 -1129745.36679970 -60740.4541145440
 707177.142913251 -1037796.46619157 -120118.334238796
 868975.390028932 -895919.203950010 -183738.897451244
 1026587.18950515 -692776.164540121 -240269.347000300
 1154539.26893332 -428698.404061465 -273507.195088214
 1225865.36870766 -126586.450450440 -269776.572897905
 1228224.86806505 173093.837338522 -230329.389920105
 1170580.31178684 437900.864423881 -171854.582460883
 1071341.47691847 656482.260904373 -113172.045448465
 947685.969893752 830053.912658710 -66717.5798831032
 815235.915530560 962015.807264962 -38280.7983243062
 692500.542381199 1054114.74407146 -28888.3376445896
 606486.693185837 1105686.80789970 -34351.1971267132
 186071.541892204 -1247194.77643102 37841.8004328676
 227472.717264677 -1240774.52473730 16857.4192007512
 302336.168732218 -1224604.05281887 -22072.2861272226
 410216.722220232 -1190268.41225211 -80825.6056252002
 552348.572650829 -1122739.08373836 -160988.928364313
 726270.697888332 -998371.345139398 -259489.810035574
 916640.684892847 -787797.379728879 -361517.045532348
 1085100.19911694 -474713.785517038 -434458.065450992
 1178434.37157601 -91828.9998993470 -440918.697250051
 1170770.39297454 279290.710360536 -377945.521152858
 1085175.77544165 578089.653326975 -282409.844073924
 959731.659785618 796250.109808717 -190919.707609513
 821593.614505623 949646.644633230 -121262.582272465
 687846.486055564 1054698.77303429 -77634.6617170702
 573256.906970424 1122296.45418716 -58108.6779110997
 497169.184093498 1158062.89840291 -57118.7941872539
 93859.6202399919 -1257917.97172698 19549.3993163664
 119335.004434265 -1255909.16251450 -873.583288594639
 169977.423808629 -1249321.31114151 -43050.7589015085
 250987.176845271 -1231192.30253308 -112784.671660201
 370688.438044881 -1186084.09150562 -217586.857820254
 536629.341310852 -1083005.92697303 -361492.106559076
 743148.419875811 -870747.602629812 -530168.340689515
 946443.353682767 -502062.211710190 -666129.075150862
 1061168.99395871 -18538.7537173937 -682001.548231538
 1042483.65716562 427676.397837549 -567336.015245142
 935985.745019663 741984.152265176 -406127.607810978
 800893.862889450 937961.481745941 -265229.542219428
 667691.073488806 1057597.68632261 -165000.591475825
 548801.089178120 1131228.05983096 -103391.837622391
 452446.956389587 1175381.90514734 -72928.4555229561
 390547.010257856 1197805.03630055 -65464.1788357042
 1403.19062772208 -1261560.89666289 -3400.88020275281
 10314.5471438429 -1261308.00454946 -23348.6336992336
 33500.2712705826 -1259249.10886151 -68693.8467057553
 78701.4254666297 -1250252.81170457 -149075.227228677
 157289.535882746 -1220248.02976422 -278934.004160994
 283785.738061626 -1134437.59912679 -473356.545829056
 466472.746069335 -920786.258841020 -725331.147561613
 673583.711938959 -490760.377176064 -947094.855927059
 804068.496542839 104171.816459986 -966525.486700542
 794361.189774272 610303.186335468 -766857.060897356
 702550.271458912 910983.884078067 -517765.303918679
 593201.882008989 1066006.01639022 -321390.931919062
 491183.534903710 1146161.00059775 -191319.436198266
 403087.731295784 1190006.77830952 -113813.792552445
 332781.447052312 1214620.00831563 -74190.1261358951
 287746.712325155 1226781.30972227 -61309.6940225255
 -92403.4859936418 -1257888.70295737 -26963.6360198758
 -101029.787133875 -1256676.83812071 -45888.3161771802
 -108409.626424838 -1253469.47962244 -92795.7298178127
 -106921.417953346 -1244059.71804754 -180090.697242483
 -87257.2640697492 -1215185.51528283 -327505.365196981
 -36010.7273238966 -1129954.51494605 -559870.924936808
 63772.0051006655 -902230.067439460 -879467.718391404
 213084.347168553 -412848.502423931 -1172902.64129510
 350334.470938626 265825.970285615 -1182434.66750295
 402047.560093555 789052.276234917 -898500.804512867
 387256.499808735 1051972.11909664 -578736.982504294
 347032.156992599 1162953.52224264 -344466.570272735
 300471.520788584 1209452.23721374 -196192.716512714
 254952.144401787 1230683.29827546 -109395.860660836
 215435.516324544 1241380.30481338 -64124.1611748238
 188551.172864642 1246494.86643469 -47417.6558075888
 -188551.159726958 -1246494.86696865 -47417.6940115751
 -215435.498782934 -1241380.30604780 -64124.1962115949
 -254952.116902175 -1230683.30102482 -109395.893820151
 -300471.478352861 -1209452.24338577 -196192.743455322
 -347032.102657026 -1162953.53391320 -344466.585611994
 -387256.421023081 -1051972.14302312 -578736.991731731
 -402047.448186473 -789052.314519849 -898500.820965996
 -350334.332786886 -265826.009527010 -1182434.69961291
 -213084.208650767 412848.476223657 -1172902.67568219
 -63771.8884698227 902230.053654626 -879467.740990149
 36010.8064293503 1129954.50911484 -559870.931617545
 87257.3129033093 1215185.51482093 -327505.353900132
 106921.446702464 1244059.71900977 -180090.673526803
 108409.642502274 1253469.48042590 -92795.7001822722
 101029.795095127 1256676.83857841 -45888.2861147866
 92403.4899067358 1257888.70344371 -26963.5999212273
 -287746.692905166 -1226781.31200739 -61309.7394426283
 -332781.423655078 -1214620.01244129 -74190.1635405716
 -403087.691529914 -1190006.78851979 -113813.826633079
 -491183.490609615 -1146161.01522911 -191319.462262710
 -593201.831374715 -1066006.03720929 -321390.956322636
 -702550.211108472 -910983.916334433 -517765.329053977
 -794361.115045403 -610303.231312969 -766857.102511104
 -804068.413275091 -104171.846548806 -966525.552729385
 -673583.622691329 490760.376403400 -947094.919801269
 -466472.667535104 920786.273062139 -725331.180015014
 -283785.676786907 1134437.60972245 -473356.557170991
 -157289.494947902 1220248.03660153 -278933.997332879
 -78701.4056436025 1250252.81568674 -149075.204296552
 -33500.2620135415 1259249.11084929 -68693.8147816794
 -10314.5483018656 1261308.00505935 -23348.6056430313
 -1403.19088879036 1261560.89675497 -3400.84593712525
 -390546.993936096 -1197805.03907850 -65464.2253797932
 -452446.935637618 -1175381.91064717 -72928.4956274743
 -548801.055806031 -1131228.07266185 -103391.874375529
 -667691.032069557 -1057597.70753005 -165000.623150411
 -800893.816764209 -937961.511904992 -265229.574845479
 -935985.703877701 -741984.185959196 -406127.641071115
 -1042483.61596000 -427676.434854283 -567336.063056321
 -1061168.95599389 18538.7393703492 -682001.607693383
 -946443.309839573 502062.229607385 -666129.123954605
 -743148.372759410 870747.628351077 -530168.364489027
 -536629.296128574 1083005.94652069 -361492.115068003
 -370688.407207468 1186084.10222219 -217586.851938990
 -250987.164184096 1231192.30683605 -112784.652863317
 -169977.423188570 1249321.31199728 -43050.7365154634
 -119335.007245686 1255909.16226302 -873.560781118362
 -93859.6188608315 1257917.97137089 19549.4288511511
 -497169.177717261 -1158062.89886207 -57118.8403774989
 -573256.892697896 -1122296.45921499 -58108.7216069494
 -687846.461594859 -1054698.78622617 -77634.6992228313
 -821593.583976870 -949646.666425288 -121262.618454052
 -959731.625721356 -796250.142452623 -190919.742701942
 -1085175.74918698 -578089.686674264 -282409.876697458
 -1170770.37312692 -279290.738450604 -377945.561877534
 -1178434.35721898 91828.9949292349 -440918.736656904
 -1085100.18212518 474713.802987538 -434458.088800243
 -916640.656751805 787797.408484335 -361517.054222811
 -726270.669438494 998371.364888550 -259489.813678474
 -552348.552176388 1122739.09481805 -160988.921341624
 -410216.714673659 1190268.41567710 -80825.5934888406
 -302336.165670340 1224604.05385727 -22072.2704551269
 -227472.719659592 1240774.52406894 16857.4360775085
 -186071.543684538 1247194.77578202 37841.8130094009
 -606486.685810504 -1105686.81035919 -34351.2481763920
 -692500.529998110 -1054114.75085444 -28888.3869811176
 -815235.899007687 -962015.819501427 -38280.8426902916
 -947685.948641862 -830053.933680996 -66717.6202096092
 -1071341.45547429 -656482.290882408 -113172.074554495
 -1170580.29666740 -437900.895086162 -171854.607316066
 -1228224.85996554 -173093.856969181 -230329.418357978
 -1225865.36571637 126586.447131286 -269776.588047794
 -1154539.26340771 428698.415150566 -273507.201031957
 -1026587.17633865 692776.185833136 -240269.341861329
 -868975.369998269 895919.224701654 -183738.890998375
 -707177.123808273 1037796.48000504 -120118.327370821
 -558153.583443745 1129745.37213027 -60740.4507565213
 -431913.629587792 1185270.72305123 -11548.1848300767
 -335669.636658819 1215833.85647183 24967.1664617237
 -278327.116046427 1229580.92139760 47055.3411131186
 -714169.334183140 -1039953.31445737 2949.03043355492
 -804411.018575786 -971748.937454138 13279.5583350190
 -924564.412125851 -858266.742002599 10405.6869824807
 -1043278.43314114 -709249.262878068 -9220.89846214045
 -1143413.23015349 -531319.355027082 -43073.8784244710
 -1215082.64888572 -328367.357705744 -85431.0581062521
 -1250795.76681773 -103526.526111343 -127834.420330069
 -1243958.24896309 136040.785354889 -160031.904555524
 -1191790.50340971 375699.520170975 -173305.214707151
 -1098975.60837490 597189.928764903 -164821.819240462
 -976416.941223023 786809.939791781 -138164.780086978
 -836956.606505445 938637.336965012 -100065.075831053
 -692997.182390059 1052616.01522121 -57479.2190118434
 -556752.766333015 1131949.59765791 -16306.3319473348
 -442114.897173214 1181411.14814288 18749.6042675433
 -368206.987258123 1205881.26723201 42701.4612416131
 -810563.166929840 -965363.097842521 51096.6991058488
 -899039.028330578 -882778.784210207 63086.2473579747
 -1008287.97541876 -755751.171509253 61196.0481345600
 -1107946.83904997 -601796.738555335 42940.8689047737
 -1185343.33194509 -431700.571671936 12051.2551378253
 -1236062.42854157 -251053.502609806 -25908.3479640098
 -1258361.83041882 -62414.1385991213 -64648.3562582149
 -1250890.33069627 131421.083341042 -97730.8054965444
 -1213039.41645590 325205.126771091 -119693.068158062
 -1145998.70163782 511856.037847041 -127435.486748871
 -1052733.04759942 684651.029076269 -120646.300381715
 -937433.938429351 838170.791594693 -101176.905058987
 -805997.254035159 967825.757146158 -72326.7669068897
 -667892.017961494 1069577.45898843 -38389.3538122979
 -539182.651171563 1140531.20220341 -4480.66903544945
 -447944.454616130 1179156.78723502 22010.6250525637
 -878767.582065201 -899895.941161785 97489.8082405446
 -961378.620780585 -809793.605379234 107400.629010613
 -1058164.92077620 -679303.283615914 101899.363228082
 -1142570.36688769 -528847.856573281 80014.5750906222
 -1205223.41293359 -369918.708678852 46326.0704684326
 -1244356.74752611 -207570.818803542 6330.16480308787
 -1260351.21554509 -43169.9120164486 -34649.7199045563
 -1253529.77653711 122762.601363919 -71706.8613184105
 -1223920.13235586 288844.804820566 -100685.745074152
 -1171555.05341503 452693.324726265 -118646.287278404
 -1096479.34276450 611462.476201596 -124081.110597412
 -998822.957696475 761741.140704409 -116844.189653421
 -879948.099251375 898675.102838498 -98101.1370018697
 -745324.439259109 1015421.15780194 -70432.8293497728
 -609176.936500608 1104082.42463486 -38143.0277651692
 -502149.409662068 1157285.63406007 -9239.18249497682
 513528.808741208 -1152169.55514944 18517.8211065927
 627415.093207455 -1094467.46166581 -6380.21075155509
 768770.084824401 -999474.769834475 -39902.0308049645
 904451.841564552 -876562.422449225 -71795.6597531566
 1020770.91976236 -735105.814253983 -95893.7022773461
 1113624.86517743 -582730.877501560 -108691.374928176
 1183041.64691417 -424455.343379381 -108625.752297760
 1230046.42457116 -263418.351279795 -95634.7035739771
 1255439.33211093 -101872.083032724 -71018.2582607684
 1259646.85095283 58626.4294757657 -37445.7416870340
 1242654.39698754 217618.787865694 1242.47106924265
 1203711.30868487 375487.339680979 40469.4205841734
 1141575.78288106 531680.390273046 75300.2354415291
 1056723.92162622 681695.435590299 100872.778673034
 957207.668987096 813850.071355757 113802.331722483
 870322.772796004 905914.634315934 115785.911940343
 457393.232522573 -1175218.60761789 34671.1129065669
 553948.421999236 -1133386.49509854 11208.4526926069
 687858.661860123 -1057281.60199659 -23569.1812009080
 828216.841295532 -949693.051679523 -60740.4503197115
 958637.548934831 -814730.026233920 -93693.4631874009
 1070270.64103153 -657505.856919846 -117286.972767707
 1158271.24709645 -483350.634517666 -127786.201054569
 1219688.81049126 -297923.315330861 -123086.695721469
 1252723.13519878 -107558.118282694 -103273.562193673
 1256910.55669681 81602.6386543529 -71177.8950779029
 1232912.61033516 265428.214264323 -31996.7071422850
 1181548.27929445 442073.374405854 8014.12856771232
 1103649.11240036 609660.027728705 42693.3040029699
 1002501.24638610 762944.217089019 66759.2954104554
 889898.665341160 890875.613611307 77268.6056277203
 797639.375110236 974366.313158772 77013.9336359741
 375855.674591639 -1203377.21065436 46532.0499649521
 453969.104813138 -1176803.61999373 24386.9383842767
 573609.421467236 -1123553.97144429 -12171.1040885367
 713252.056343300 -1039026.09166152 -56971.1847128839
 857999.408511710 -918997.467838863 -104067.766471025
 995201.194418248 -761334.685045521 -146606.653648743
 1112713.54806640 -567563.478970964 -176888.914878277
 1198906.55969377 -344893.484534951 -187672.524274430
 1244747.61800885 -107234.542408667 -175081.556123594
 1246994.16188044 128313.867992806 -141741.110605802
 1208597.21222006 348673.713695935 -96274.8716454267
 1135400.46268739 547724.921334852 -49118.5382207147
 1033925.04814703 722817.885584351 -9095.60401922551
 913205.244738867 870221.901091448 17873.2974340592
 789966.489753925 983169.211593566 29676.2086409732
 697036.293364453 1051085.10270789 30165.2700510237
 285535.332814442 -1227927.30994262 47048.1256861545
 346534.536600586 -1212771.47927899 25467.3302374674
 447553.019284320 -1179430.52063370 -13761.2806871624
 577867.979430259 -1119372.04366667 -68001.8906034201
 728986.925931651 -1020902.54056883 -133736.664381130
 889480.341016160 -871108.429573440 -203824.085404112
 1041442.82992556 -660649.522367612 -265496.650658816
 1160365.61145025 -392781.635255239 -301369.649581470
 1222575.85872248 -91819.7753040564 -297366.490128036
 1218700.33598973 203567.448415218 -254713.988471774
 1157836.70281183 463414.250130749 -190291.443098586
 1057022.99664400 677440.885478098 -123796.858471240
 932299.103825932 847131.549315105 -68818.2394377152
 798611.943236608 976091.603310250 -31836.7238582836
 674119.220117365 1066267.84005624 -13623.5549368087
 586737.657753954 1116780.74611884 -9440.17958560097
 194163.979554320 -1245986.80549222 36968.3716422044
 238940.334678601 -1238638.91327824 15185.1867140313
 318419.934105760 -1220403.35973165 -27817.5491143663
 430739.099968912 -1182067.50892095 -93432.6657564058
 575676.905148684 -1107625.48652811 -182513.871776258
 748372.179707328 -973190.015959522 -290499.060920618
 930840.559296765 -751719.049936613 -400004.692534269
 1085233.53796854 -432565.257014605 -476135.377189220
 1164865.22809020 -51985.8000095423 -481597.246568844
 1149976.63125682 312797.949938480 -413836.466489430
 1062513.21993615 605637.508065259 -309545.307191660
 937337.671355389 818568.673620677 -207105.884377764
 800026.448593636 967198.112386793 -126629.079855430
 667015.680693929 1068289.62562067 -73462.8369900322
 552579.559596588 1133201.63911773 -45379.5806050338
 476420.943360921 1167595.63205146 -35957.6926455058
 103772.740306651 -1257137.84267621 19623.8069601204
 132436.875529066 -1254592.30721631 -2836.82793105830
 187639.258452301 -1246518.83037710 -50316.4498123806
 273407.324650178 -1224853.16292281 -128579.139150117
 396380.859707673 -1172415.02883021 -244692.960972339
 560557.548247501 -1056784.46388771 -400663.528296843
 755056.027790473 -829355.792427879 -577588.777057303
 935454.765821469 -453767.997459683 -714540.703180920
 1029643.39416877 21231.1495461585 -728651.597165969
 1004893.35597236 456655.209937348 -610904.897081892
 901020.690607506 765293.744597105 -440495.891577511
 770198.733275506 957205.270447775 -286533.440294081
 640940.747893316 1072641.51903057 -173737.043432617
 525262.062233728 1142481.67977440 -101905.879500551
 430970.927628856 1183983.13129680 -63225.2739203165
 370109.557518664 1205079.69735920 -48489.8893063652
 13666.1649535575 -1261491.68812757 -1177.98110290899
 25594.8741446841 -1261072.60779447 -24294.2628398236
 53371.9662100334 -1258149.64837223 -75896.8144435064
 103821.395626574 -1246283.90620185 -165972.810638880
 186583.298395247 -1208924.07553630 -308607.652639393
 311851.962237624 -1108355.67363935 -515602.060972376
 479805.430968902 -875326.822048935 -771452.612889095
 654831.182519460 -441089.409521382 -983964.270757428
 756618.854977496 131007.300797522 -1000956.75548409
 742407.378089145 621626.796824301 -808678.453619059
 657976.940998177 921853.416938913 -555699.607442444
 556719.702004857 1077754.83160722 -346492.607808407
 461408.728207127 1156462.25781835 -203092.251686092
 378532.755899695 1197924.68898132 -115060.084994518
 311749.049200750 1220570.26573302 -67603.1630162842
 268595.782817539 1231686.11749496 -48528.7990967284
 -77615.4173794722 -1258988.59284924 -21748.5856884626
 -83443.0452404938 -1258003.58500712 -44873.9259389008
 -86223.8268960851 -1254739.44294235 -98710.7538167325
 -78876.0623274842 -1243701.71880366 -196300.872019143
 -53329.7550206903 -1208840.81631857 -356944.321919588
 435.253828151880 -1109431.17969660 -600592.789658740
 91410.8576704293 -862470.455698221 -916154.025842060
 211744.666527874 -377122.976736978 -1185112.60542321
 314457.795956185 262454.101814364 -1193224.02335946
 353697.306998409 771945.364972444 -933031.617598561
 342396.107081728 1045396.20411495 -617625.382571261
 309651.516512663 1164979.61835362 -372139.567986273
 270431.819135452 1214123.78776420 -210521.946844403
 230988.041010630 1235062.69076748 -113199.406814766
 195807.381421291 1244808.21295668 -60509.6129179777
 171373.100822748 1249275.57750141 -38616.3526485615
 -171373.088417810 -1249275.57768047 -38616.4019066381
 -195807.367263462 -1244808.21301245 -60509.6575850782
 -230988.016863567 -1235062.69197489 -113199.442914420
 -270431.786779032 -1214123.79000999 -210521.975456795
 -309651.470894032 -1164979.62336685 -372139.590250969
 -342396.041262846 -1045396.21622703 -617625.398558627
 -353697.215364255 -771945.385748767 -933031.635146265
 -314457.682248462 -262454.123373120 -1193224.04858364
 -211744.555452365 377122.960520685 -1185112.63042942
 -91410.7648216356 862470.451334713 -916154.039214025
 -435.185675468749 1109431.18071905 -600592.787819431
 53329.7999207565 1208840.81873369 -356944.307032099
 78876.0895077289 1243701.72208007 -196300.840339477
 86223.8424071321 1254739.44494391 -98710.7148254164
 83443.0521587111 1258003.58606255 -44873.8834864718
 77615.4221192770 1258988.59331279 -21748.5419389558
 -268595.762104548 -1231686.12000799 -48528.8499564387
 -311749.023584638 -1220570.26964917 -67603.2104380599
 -378532.728054245 -1197924.69377338 -115060.126710900
 -461408.691646787 -1156462.26640903 -203092.285830477
 -556719.659403334 -1077754.84409226 -346492.637423155
 -657976.884711807 -921853.437641621 -555699.639744553
 -742407.311165237 -621626.823490995 -808678.494560015
 -756618.780738559 -131007.319866325 -1000956.80910521
 -654831.107707755 441089.417597626 -983964.316924438
 -479805.361637128 875326.834243118 -771452.642173931
 -311851.909399798 1108355.68620028 -515602.065928905
 -186583.262651724 1208924.08333018 -308607.643718469
 -103821.376020582 1246283.91082565 -165972.788183084
 -53371.9607029792 1258149.65065359 -75896.7804978165
 -25594.8670976202 1261072.60863687 -24294.2265365519
 -13666.1623015247 1261491.68819434 -1177.94035748226
 -370109.539516774 -1205079.70060667 -48489.9460029625
 -430970.905438988 -1183983.13660434 -63225.3257848135
 -525262.029798873 -1142481.69091352 -101905.921799955
 -640940.713322827 -1072641.53337182 -173737.082426121
 -770198.696557862 -957205.289444099 -286533.475530807
 -901020.652338604 -765293.769293828 -440495.926948610
 -1004893.31559550 -456655.236325718 -610904.943773362
 -1029643.35639917 -21231.1595419229 -728651.650246206
 -935454.725500252 453768.009364110 -714540.748408329
 -755055.988898211 829355.813876847 -577588.797100991
 -560557.514314953 1056784.47822482 -400663.537955596
 -396380.834535805 1172415.03953663 -244692.950450078
 -273407.311798261 1224853.16766063 -128579.121345273
 -187639.252956130 1246518.83247125 -50316.4184290188
 -132436.872604289 1254592.30759053 -2836.79897320139
 -103772.734545811 1257137.84267252 19623.8376605744
 -476420.932489146 -1167595.63476613 -35957.7485418910
 -552579.542217243 -1133201.64541374 -45379.6350086507
 -667015.659628494 -1068289.63549278 -73462.8846970786
 -800026.418013739 -967198.131946341 -126629.123658685
 -937337.640481023 -818568.699487112 -207105.921876704
 -1062513.19396557 -605637.537532071 -309545.338682609
 -1149976.61082935 -312797.970972633 -413836.507355016
 -1164865.21389515 51985.7945324762 -481597.281494387
 -1085233.52189379 432565.272490492 -476135.399767936
 -930840.538125361 751719.071487864 -400004.701300952
 -748372.155157100 973190.034162919 -290499.063183423
 -575676.889012313 1107625.49607999 -182513.864705189
 -430739.091311355 1182067.51307444 -93432.6531210600
 -318419.930080551 1220403.36111633 -27817.5344417257
 -238940.332587526 1238638.91339231 15185.2103127877
 -194163.973307859 1245986.80593286 36968.3895982606
 -586737.648986153 -1116780.75020670 -9440.24093539488
 -674119.206870458 -1066267.84770649 -13623.6116604243
 -798611.925755094 -976091.615866631 -31836.7774054519
 -932299.083799584 -847131.567910752 -68818.2818332598
 -1057022.97713561 -677440.908751132 -123796.897686370
 -1157836.68837383 -463414.275037508 -190291.470292129
 -1218700.32922339 -203567.464620374 -254714.007894735
 -1222575.85523447 91819.7699579185 -297366.506119198
 -1160365.60882050 392781.643099370 -301369.649483386
 -1041442.81859225 660649.541862698 -265496.646604418
 -889480.325038352 871108.447466315 -203824.078659631
 -728986.909036622 1020902.55341341 -133736.658423029
 -577867.965792705 1119372.05117071 -68001.8829697623
 -447553.012268611 1179430.52339832 -13761.2719109696
 -346534.531981714 1212771.48034428 25467.3423566059
 -285535.331949940 1227927.31011187 47048.1265155770
 -697036.280927017 -1051085.11303889 30165.1974700872
 -789966.480056822 -983169.221569180 29676.1362822187
 -913205.232647549 -870221.914981447 17873.2389373780
 -1033925.03680350 -722817.901217675 -9095.65110979121
 -1135400.45319432 -547724.938295739 -49118.5685256025
 -1208597.20633973 -348673.730086955 -96274.8861022097
 -1246994.15934024 -128313.881127539 -141741.121063277
 -1244747.61953945 107234.534124042 -175081.550315898
 -1198906.56032143 344893.488134290 -187672.513650100
 -1112713.54154533 567563.494508781 -176888.906044410
 -995201.179390556 761334.706586471 -146606.643797243
 -857999.393201228 918997.483199250 -104067.757056263
 -713252.044653892 1039026.09990980 -56971.1806287048
 -573609.411938483 1123553.97637280 -12171.0982003841
 -453969.095985613 1176803.62342525 24386.9371211979
 -375855.670454986 1203377.21216454 46532.0443230293
 -797639.364632510 -974366.328724068 77013.8452252622
 -889898.652907996 -890875.633382576 77268.5208650990
 -1002501.24197371 -762944.229290494 66759.2222277938
 -1103649.10668401 -609660.041228375 42693.2589990889
 -1181548.27600705 -442073.383662326 8014.10263663366
 -1232912.60904204 -265428.219502244 -31996.7135183516
 -1256910.55661258 -81602.6450985617 -71177.8891772176
 -1252723.13715163 107558.108437723 -103273.548758823
 -1219688.81241251 297923.312786243 -123086.682842584
 -1158271.24400917 483350.645714834 -127786.186684851
 -1070270.63059273 657505.875806673 -117286.962145402
 -958637.536479845 814730.042118735 -93693.4524927561
 -828216.830719102 949693.061256527 -60740.4447939434
 -687858.653764577 1057281.60717232 -23569.1852903603
 -553948.412698714 1133386.49971028 11208.4460125449
 -457393.217215853 1175218.61400911 34671.0982000400
 -870322.762154392 -905914.657877311 115785.807584256
 -957207.661432304 -813850.093392180 113802.237674809
 -1056723.91895178 -681695.449960977 100872.709573183
 -1141575.78284011 -531680.396614078 75300.1912895953
 -1203711.30812141 -375487.343562132 40469.4013329603
 -1242654.39678620 -217618.789010075 1242.47199670890
 -1259646.85117150 -58626.4325876317 -37445.7294591269
 -1255439.33390748 101872.072659003 -71018.2413824119
 -1230046.42677214 263418.346939557 -95634.6872199850
 -1183041.64497659 424455.352796515 -108625.736602438
 -1113624.85655777 582730.896952058 -108691.358962408
 -1020770.90995732 735105.830024762 -95893.6857539323
 -904451.837169386 876562.427461723 -71795.6539234008
 -768770.083382031 999474.770710072 -39902.0366621646
 -627415.085192500 1094467.46614993 -6380.22971332201
 -513528.788969884 1152169.56444331 18517.7911370706
 535428.221009895 -1141050.37827841 53573.1770182922
 653216.395759883 -1078864.64225628 30147.2207450848
 797967.898518636 -977122.406145466 -5335.47197552319
 933620.909769680 -847412.697559642 -42345.5756187068
 1046386.87020963 -700908.613364983 -73150.9704830679
 1133414.14743090 -546136.761850700 -93039.9842952990
 1196194.15717834 -388223.970788158 -99755.2893676733
 1236963.12463267 -229901.523339847 -92827.5216945291
 1257340.41589690 -72682.7363421621 -73223.8301986963
 1258103.39699721 82797.0705233204 -43242.5542235957
 1239088.78352632 236999.349351242 -6302.84581107334
 1198952.84884321 391077.700129215 33462.3614130939
 1135517.22044193 545000.471170587 71586.0281243331
 1048198.15984573 694324.055648626 103654.012766615
 944609.244278678 826640.703880352 126205.995223745
 853748.896937436 918469.898753506 138113.348307786
 477068.260337014 -1166521.11298436 56425.1615832878
 577690.970565463 -1121015.01625049 33880.7731167867
 716088.643991051 -1038633.12406423 -2778.21212291004
 858134.856949593 -923670.683953981 -44569.7858536650
 986458.261890192 -781966.386723406 -83535.0136306694
 1092784.86505272 -620101.608176548 -113334.307107475
 1173629.93335017 -444276.688464728 -129462.096963702
 1227630.95344260 -260263.567514620 -129362.082903448
 1254349.69827608 -73720.2450330262 -112790.029816168
 1254031.18461910 110436.067435020 -82213.7089009927
 1227210.71747919 289313.239978711 -42439.7808216775
 1173957.62207090 461922.719275001 577.856538191869