# OOMMF OVF 2.0
#
# Segment count: 1
#
# Begin: Segment
# Begin: Header
#
# Title: Oxs_MinDriver::Magnetization
# Desc: Oxs vector field output
# Desc:  MIF source file: C:/Users/grl31/Documents/GitHub/phd-work/multi-axis-tomo/stdprob3/drive-2/stdprob3.mif
# Desc:  Iteration: 761, State id: 1625
# Desc:  Stage: 0, Stage iteration: 761
# Desc:  Stage simulation time: -1 s
# Desc:  Total simulation time: -2 s
# meshunit: m
# meshtype: rectangular
# xbase: 1.5624999999999999e-09
# ybase: 1.5624999999999999e-09
# zbase: 1.5624999999999999e-09
# xnodes: 32
# ynodes: 32
# znodes: 32
# xstepsize: 3.1249999999999999e-09
# ystepsize: 3.1249999999999999e-09
# zstepsize: 3.1249999999999999e-09
# xmin: 0
# ymin: 0
# zmin: 0
# xmax: 9.9999999999999995e-08
# ymax: 9.9999999999999995e-08
# zmax: 9.9999999999999995e-08
# valuedim: 3
# valuelabels: Magnetization_x Magnetization_y Magnetization_z
# valueunits: A/m A/m A/m
#
# End: Header
#
# Begin: Data Text
 0.000000000000000 -0.000000000000000 -0.000000000000000
 -0.000000000000000 0.000000000000000 0.000000000000000
 0.000000000000000 0.000000000000000 -0.000000000000000
 -37612.5456719030 -1240851.01578172 -224551.740052262
 -30717.2520487735 -1241025.24469577 -224637.982926614
 0.000000000000000 0.000000000000000 0.000000000000000
 0.000000000000000 0.000000000000000 0.000000000000000
 0.000000000000000 -0.000000000000000 0.000000000000000
 90039.8571381661 -1239855.87075284 -214941.096129194
 96692.5298367732 -1239328.76714999 -215091.126054038
 -0.000000000000000 -0.000000000000000 0.000000000000000
 -0.000000000000000 -0.000000000000000 -0.000000000000000
 -0.000000000000000 0.000000000000000 -0.000000000000000
 236684.814794592 -1234508.05372090 -107329.374650311
 242980.594964440 -1233257.67801902 -107635.314821983
 -0.000000000000000 -0.000000000000000 -0.000000000000000
 0.000000000000000 -0.000000000000000 -0.000000000000000
 0.000000000000000 0.000000000000000 0.000000000000000
 264207.344168742 1223555.62815420 157020.810781363
 258046.830147723 1224899.92759075 156784.666845486
 0.000000000000000 0.000000000000000 -0.000000000000000
 0.000000000000000 0.000000000000000 0.000000000000000
 0.000000000000000 0.000000000000000 -0.000000000000000
 137181.123645960 1214528.83385830 312490.771001302
 128268.892406781 1215382.90464489 312955.136172330
 118889.451562525 1216435.12114503 312570.512478374
 -0.000000000000000 0.000000000000000 -0.000000000000000
 0.000000000000000 -0.000000000000000 -0.000000000000000
 -70761.6830113650 1218921.45202043 317447.175039826
 -80392.9321131139 1218279.79744371 317617.289399880
 -89810.1907711459 1217807.45580443 316904.656229197
 -0.000000000000000 -0.000000000000000 0.000000000000000
 0.000000000000000 -0.000000000000000 -0.000000000000000
 -0.000000000000000 -0.000000000000000 -0.000000000000000
 0.000000000000000 -0.000000000000000 0.000000000000000
 -34194.5095637767 -1242799.85441144 -214076.360931205
 -30168.4491427428 -1242901.08714560 -214093.865319791
 0.000000000000000 -0.000000000000000 0.000000000000000
 0.000000000000000 0.000000000000000 -0.000000000000000
 -0.000000000000000 -0.000000000000000 0.000000000000000
 88983.5146035561 -1241733.07871402 -204280.019275382
 92847.7049773445 -1241404.22111749 -204558.779794634
 0.000000000000000 -0.000000000000000 0.000000000000000
 -0.000000000000000 -0.000000000000000 -0.000000000000000
 -0.000000000000000 -0.000000000000000 -0.000000000000000
 229633.679616755 -1236478.06290600 -99698.5659718680
 233158.653086019 -1235771.23059123 -100279.305208498
 0.000000000000000 0.000000000000000 -0.000000000000000
 0.000000000000000 -0.000000000000000 0.000000000000000
 -0.000000000000000 -0.000000000000000 -0.000000000000000
 253970.071866816 1226770.59904080 148601.920727822
 250491.875025791 1227555.50301049 148022.763430799
 -0.000000000000000 -0.000000000000000 -0.000000000000000
 0.000000000000000 0.000000000000000 0.000000000000000
 0.000000000000000 0.000000000000000 -0.000000000000000
 130808.575651621 1218585.02502649 299147.261789455
 124352.741688088 1219294.67147129 299008.914039899
 117504.493170969 1220046.77059660 298710.566536243
 0.000000000000000 0.000000000000000 -0.000000000000000
 0.000000000000000 0.000000000000000 -0.000000000000000
 -69661.6387669667 1222470.77516252 303746.425290591
 -76687.9667768920 1222043.94329217 303771.274701039
 -83512.7120118528 1221635.37966788 303614.981506354
 -0.000000000000000 0.000000000000000 0.000000000000000
 -0.000000000000000 -0.000000000000000 0.000000000000000
 0.000000000000000 -0.000000000000000 -0.000000000000000
 -0.000000000000000 -0.000000000000000 -0.000000000000000
 -30194.4977696676 -1245238.24475124 -200048.586678965
 -27713.0931998659 -1245301.50386739 -200013.949138232
 -0.000000000000000 0.000000000000000 0.000000000000000
 -0.000000000000000 0.000000000000000 0.000000000000000
 -0.000000000000000 -0.000000000000000 -0.000000000000000
 85983.5865251290 -1244210.41889852 -189991.282093685
 88384.2807453774 -1243991.37742054 -190323.678872134
 0.000000000000000 0.000000000000000 -0.000000000000000
 0.000000000000000 -0.000000000000000 0.000000000000000
 -0.000000000000000 -0.000000000000000 -0.000000000000000
 217332.295332950 -1239414.71283860 -90372.9711998051
 219332.994261734 -1239009.14615996 -91097.7731841378
 -0.000000000000000 0.000000000000000 0.000000000000000
 0.000000000000000 -0.000000000000000 -0.000000000000000
 0.000000000000000 0.000000000000000 -0.000000000000000
 239362.947656013 1230976.54115853 137664.684381121
 237359.090074871 1231449.32713405 136903.790958769
 0.000000000000000 -0.000000000000000 0.000000000000000
 -0.000000000000000 0.000000000000000 0.000000000000000
 -0.000000000000000 0.000000000000000 -0.000000000000000
 122749.594134149 1223937.35787477 280105.894363883
 118077.437217163 1224517.31372649 279579.144650032
 113103.407602984 1225057.44569659 279269.233627520
 -0.000000000000000 -0.000000000000000 0.000000000000000
 -0.000000000000000 -0.000000000000000 -0.000000000000000
 -65565.9153350568 1227305.55360315 284555.126047808
 -70631.3614532531 1227018.95826118 284578.842793803
 -75520.8782646815 1226672.96735873 284814.780193057
 0.000000000000000 0.000000000000000 0.000000000000000
 0.000000000000000 -0.000000000000000 -0.000000000000000
 -0.000000000000000 0.000000000000000 0.000000000000000
 0.000000000000000 0.000000000000000 -0.000000000000000
 -25916.3472250960 -1247740.23818792 -184450.730202463
 -24141.0685625151 -1247786.14341870 -184381.072835309
 -0.000000000000000 0.000000000000000 0.000000000000000
 0.000000000000000 0.000000000000000 0.000000000000000
 0.000000000000000 -0.000000000000000 -0.000000000000000
 81669.2952529628 -1246820.58729708 -174120.591039686
 83419.8045442938 -1246656.85596781 -174462.748451374
 -0.000000000000000 0.000000000000000 0.000000000000000
 -0.000000000000000 0.000000000000000 0.000000000000000
 -0.000000000000000 0.000000000000000 -0.000000000000000
 201780.774925663 -1242698.79431665 -80831.0360771226
 203069.046070478 -1242437.94826228 -81610.8948903297
 -0.000000000000000 -0.000000000000000 0.000000000000000
 -0.000000000000000 0.000000000000000 0.000000000000000
 0.000000000000000 0.000000000000000 -0.000000000000000
 222008.804953375 1235481.96922080 125880.201669770
 220688.207304524 1235803.32070029 125045.186320002
 -0.000000000000000 0.000000000000000 -0.000000000000000
 -0.000000000000000 0.000000000000000 0.000000000000000
 0.000000000000000 -0.000000000000000 0.000000000000000
 113905.132774549 1229607.32612055 258148.939949851
 110300.404842136 1230083.55141019 257444.572987465
 106449.264758593 1230499.20466834 257079.155634770
 0.000000000000000 0.000000000000000 -0.000000000000000
 -0.000000000000000 -0.000000000000000 0.000000000000000
 -59373.6733256734 1232489.51510497 262666.695626003
 -63239.9376161063 1232275.78606430 262767.060890182
 -66951.7726217749 1231984.02412243 263215.226324127
 -0.000000000000000 0.000000000000000 -0.000000000000000
 -0.000000000000000 -0.000000000000000 -0.000000000000000
 -0.000000000000000 0.000000000000000 -0.000000000000000
 0.000000000000000 -0.000000000000000 0.000000000000000
 -21572.8886581820 -1250122.18566854 -168162.309371689
 -20147.3670978164 -1250158.02565824 -168072.678922740
 0.000000000000000 -0.000000000000000 0.000000000000000
 0.000000000000000 -0.000000000000000 0.000000000000000
 0.000000000000000 0.000000000000000 0.000000000000000
 76493.5492811007 -1249339.85083530 -157632.816862969
 77922.2243849784 -1249209.46047901 -157966.077736954
 -0.000000000000000 -0.000000000000000 -0.000000000000000
 0.000000000000000 0.000000000000000 -0.000000000000000
 -0.000000000000000 0.000000000000000 0.000000000000000
 184424.409857000 -1245958.51395023 -71585.2602341934
 185363.003240577 -1245773.96145825 -72368.6734796425
 0.000000000000000 0.000000000000000 -0.000000000000000
 -0.000000000000000 0.000000000000000 0.000000000000000
 -0.000000000000000 0.000000000000000 0.000000000000000
 202966.019531021 1239911.09557250 113906.544635928
 201975.127905285 1240150.55279118 113057.883574468
 -0.000000000000000 0.000000000000000 0.000000000000000
 -0.000000000000000 -0.000000000000000 -0.000000000000000
 -0.000000000000000 0.000000000000000 0.000000000000000
 104553.095031834 1235108.28668865 234788.418349873
 101601.789906418 1235499.68858001 234023.560193135
 98440.6851928409 1235832.87854465 233614.979669056
 0.000000000000000 0.000000000000000 -0.000000000000000
 -0.000000000000000 0.000000000000000 0.000000000000000
 -52177.9704451778 1237524.95931426 239497.109363396
 -55304.5478493376 1237355.09293252 239673.135541075
 -58300.0792492774 1237110.98812372 240222.677410013
 -0.000000000000000 0.000000000000000 0.000000000000000
 0.000000000000000 0.000000000000000 0.000000000000000
 0.000000000000000 -0.000000000000000 0.000000000000000
 0.000000000000000 0.000000000000000 -0.000000000000000
 -17396.7191989810 -1252293.73446228 -151681.204196748
 -16183.4619904800 -1252321.75054462 -151584.166685771
 0.000000000000000 0.000000000000000 -0.000000000000000
 -0.000000000000000 0.000000000000000 0.000000000000000
 0.000000000000000 0.000000000000000 -0.000000000000000
 70722.5920784243 -1251654.02620212 -141102.603025943
 71946.6147619574 -1251548.58425992 -141418.728534186
 0.000000000000000 -0.000000000000000 0.000000000000000
 0.000000000000000 -0.000000000000000 0.000000000000000
 -0.000000000000000 0.000000000000000 0.000000000000000
 166249.097437963 -1248984.15181372 -62843.1144851201
 166989.679144068 -1248847.15583903 -63597.6362068019
 0.000000000000000 0.000000000000000 -0.000000000000000
 -0.000000000000000 0.000000000000000 -0.000000000000000
 0.000000000000000 0.000000000000000 -0.000000000000000
 183076.610954836 1244032.00283980 102062.536469729
 182269.880318414 1244217.81639629 101238.070950180
 -0.000000000000000 0.000000000000000 0.000000000000000
 0.000000000000000 0.000000000000000 -0.000000000000000
 0.000000000000000 0.000000000000000 0.000000000000000
 94893.0880400538 1240175.15470845 210974.686645232
 92392.3491842533 1240493.51391692 210211.623515995
 89709.9963411733 1240762.32236218 209786.574598658
 -0.000000000000000 0.000000000000000 0.000000000000000
 0.000000000000000 0.000000000000000 0.000000000000000
 -44770.9275195658 1242149.64553099 215891.762407075
 -47396.1257709720 1242013.37655452 216115.271650350
 -49914.3842505497 1241813.18371817 216697.950861517
 0.000000000000000 0.000000000000000 0.000000000000000
 -0.000000000000000 -0.000000000000000 0.000000000000000
 -0.000000000000000 -0.000000000000000 0.000000000000000
 -0.000000000000000 -0.000000000000000 -0.000000000000000
 -13576.9303622313 -1254214.42372973 -135319.167855874
 -12522.9017331159 -1254235.65478404 -135223.999791400
 0.000000000000000 0.000000000000000 0.000000000000000
 -0.000000000000000 -0.000000000000000 0.000000000000000
 0.000000000000000 0.000000000000000 -0.000000000000000
 64530.4179023038 -1253709.31480004 -124892.794299467
 65591.6757374659 -1253624.86845239 -125187.268484636
 0.000000000000000 0.000000000000000 0.000000000000000
 0.000000000000000 0.000000000000000 -0.000000000000000
 -0.000000000000000 -0.000000000000000 0.000000000000000
 147916.641912426 -1251670.81816074 -54683.2783319531
 148524.507657674 -1251567.85564220 -55387.7627927469
 0.000000000000000 -0.000000000000000 -0.000000000000000
 0.000000000000000 -0.000000000000000 -0.000000000000000
 0.000000000000000 0.000000000000000 -0.000000000000000
 162982.775040080 1247714.70131242 90521.1029983986
 162300.429798611 1247859.62923100 89746.0146279819
 0.000000000000000 -0.000000000000000 0.000000000000000
 0.000000000000000 -0.000000000000000 0.000000000000000
 -0.000000000000000 0.000000000000000 -0.000000000000000
 85106.9046730582 1244674.18353306 187329.716121717
 82960.6819847848 1244928.19762013 186603.158960032
 80656.7373626448 1245142.15708126 186185.204288613
 0.000000000000000 0.000000000000000 0.000000000000000
 -0.000000000000000 0.000000000000000 -0.000000000000000
 -37648.3469295824 1246241.78459054 192388.791859088
 -39892.0447663263 1246134.64373505 192630.489192728
 -42051.0980248904 1245975.04066272 193202.831551159
 -0.000000000000000 -0.000000000000000 0.000000000000000
 0.000000000000000 -0.000000000000000 -0.000000000000000
 0.000000000000000 0.000000000000000 0.000000000000000
 -0.000000000000000 0.000000000000000 0.000000000000000
 -10235.2604389173 -1255873.64963746 -119272.991531945
 -9318.14225070720 -1255889.08090699 -119185.651831700
 -0.000000000000000 -0.000000000000000 -0.000000000000000
 0.000000000000000 0.000000000000000 -0.000000000000000
 -0.000000000000000 -0.000000000000000 -0.000000000000000
 58045.0830441714 -1255488.07787355 -109224.015540222
 58961.6133984640 -1255421.87596414 -109493.709477259
 -0.000000000000000 0.000000000000000 0.000000000000000
 0.000000000000000 -0.000000000000000 0.000000000000000
 0.000000000000000 -0.000000000000000 0.000000000000000
 129856.269844789 -1253980.28552573 -47119.2488666622
 130362.408490174 -1253903.51549582 -47760.3098694837
 -0.000000000000000 -0.000000000000000 -0.000000000000000
 0.000000000000000 0.000000000000000 0.000000000000000
 -0.000000000000000 0.000000000000000 0.000000000000000
 143139.118797529 1250903.64740252 79376.8763803543
 142555.236947883 1251015.11703409 78667.7334736260
 -0.000000000000000 -0.000000000000000 -0.000000000000000
 0.000000000000000 -0.000000000000000 0.000000000000000
 -0.000000000000000 -0.000000000000000 0.000000000000000
 75344.9633843070 1248556.76685896 164251.536803357
 73504.0533876643 1248754.42726388 163581.678202072
 71526.6833142898 1248920.79368119 163187.669888897
 -0.000000000000000 -0.000000000000000 -0.000000000000000
 -0.000000000000000 -0.000000000000000 -0.000000000000000
 -31090.3083986904 1249763.91042276 169331.012657000
 -33015.3806093820 1249682.31548956 169568.646614979
 -34874.9545034183 1249559.13717759 170103.295568735
 -0.000000000000000 0.000000000000000 -0.000000000000000
 -0.000000000000000 0.000000000000000 0.000000000000000
 0.000000000000000 0.000000000000000 0.000000000000000
 -0.000000000000000 0.000000000000000 -0.000000000000000
 -7429.94419526449 -1257278.45648798 -103658.620960393
 -6638.42113054236 -1257289.17258396 -103582.328545942
 -0.000000000000000 0.000000000000000 -0.000000000000000
 -0.000000000000000 -0.000000000000000 0.000000000000000
 -0.000000000000000 -0.000000000000000 0.000000000000000
 51365.7909999706 -1256994.31972846 -94213.9406048455
 52148.7451425454 -1256943.88341019 -94456.4092940201
 0.000000000000000 -0.000000000000000 0.000000000000000
 0.000000000000000 -0.000000000000000 0.000000000000000
 0.000000000000000 -0.000000000000000 0.000000000000000
 112326.994197842 -1255914.73694074 -40127.9307778889
 112748.487329806 -1255858.63434659 -40697.6665289794
 0.000000000000000 -0.000000000000000 -0.000000000000000
 -0.000000000000000 0.000000000000000 -0.000000000000000
 0.000000000000000 0.000000000000000 -0.000000000000000
 123838.955271180 1253593.69700540 68674.4996678898
 123340.825407061 1253677.31501351 68041.6161431690
 -0.000000000000000 -0.000000000000000 -0.000000000000000
 0.000000000000000 -0.000000000000000 0.000000000000000
 0.000000000000000 -0.000000000000000 0.000000000000000
 65716.5363950234 1251828.29512594 141974.248669503
 64150.7888849501 1251977.55135970 141372.975125270
 62468.0022100206 1252103.13199358 141013.922967611
 -0.000000000000000 -0.000000000000000 0.000000000000000
 0.000000000000000 0.000000000000000 -0.000000000000000
 -25230.6556376527 1252727.52539087 146923.762758533
 -26873.5623813109 1252667.63704694 147142.902170389
 -28466.7025241075 1252575.88386034 147623.619173412
 0.000000000000000 0.000000000000000 0.000000000000000
 0.000000000000000 -0.000000000000000 -0.000000000000000
 0.000000000000000 -0.000000000000000 0.000000000000000
 -0.000000000000000 0.000000000000000 0.000000000000000
 -5168.80616982252 -1258445.41811481 -88531.5988084531
 -4495.63534223333 -1258452.50398212 -88467.5952140063
 -0.000000000000000 0.000000000000000 0.000000000000000
 0.000000000000000 -0.000000000000000 0.000000000000000
 0.000000000000000 -0.000000000000000 -0.000000000000000
 44568.9715258337 -1258244.14442150 -79904.3848927032
 45227.4795833219 -1258207.08337161 -80117.6719768803
 0.000000000000000 -0.000000000000000 -0.000000000000000
 0.000000000000000 0.000000000000000 0.000000000000000
 0.000000000000000 -0.000000000000000 0.000000000000000
 95462.5264977164 -1257498.72225911 -33664.5283694470
 95810.4165311777 -1257458.93435421 -34158.7970493272
 -0.000000000000000 -0.000000000000000 -0.000000000000000
 -0.000000000000000 -0.000000000000000 0.000000000000000
 0.000000000000000 0.000000000000000 0.000000000000000
 105244.953043778 1255810.36733428 58423.0440280773
 104825.081915517 1255870.98589195 57872.2724207825
 -0.000000000000000 0.000000000000000 -0.000000000000000
 0.000000000000000 0.000000000000000 0.000000000000000
 0.000000000000000 0.000000000000000 0.000000000000000
 56289.9344852873 1254525.55844141 120608.861249303
 54976.9968852413 1254634.22208507 120083.010894262
 53565.0489804324 1254725.62242416 119765.724975797
 -0.000000000000000 0.000000000000000 -0.000000000000000
 -0.000000000000000 0.000000000000000 0.000000000000000
 -20106.1036046822 1255170.34326886 125270.047877048
 -21490.8991174675 1255128.16916822 125462.548732726
 -22838.5190697010 1255062.50113724 125880.702273203
 0.000000000000000 -0.000000000000000 -0.000000000000000
 0.000000000000000 0.000000000000000 0.000000000000000
 -0.000000000000000 -0.000000000000000 -0.000000000000000
 0.000000000000000 -0.000000000000000 -0.000000000000000
 -3423.04559800363 -1259395.21996324 -73901.2422867357
 -2862.70080371100 -1259399.65378900 -73849.4949149883
 -0.000000000000000 0.000000000000000 -0.000000000000000
 0.000000000000000 -0.000000000000000 0.000000000000000
 -0.000000000000000 0.000000000000000 -0.000000000000000
 37711.2134464233 -1259259.33456324 -66281.3971993677
 38253.4507041799 -1259233.35627089 -66463.9668010757
 0.000000000000000 0.000000000000000 0.000000000000000
 0.000000000000000 -0.000000000000000 -0.000000000000000
 0.000000000000000 0.000000000000000 -0.000000000000000
 79304.6804342876 -1258767.05865531 -27671.1153448570
 79587.0082187182 -1258740.00128364 -28088.2219124138
 -0.000000000000000 -0.000000000000000 0.000000000000000
 -0.000000000000000 0.000000000000000 -0.000000000000000
 -0.000000000000000 0.000000000000000 0.000000000000000
 87417.9557952031 1257594.96527510 48604.8890366172
 87071.0537152742 1257636.94862874 48139.0482628003
 -0.000000000000000 -0.000000000000000 -0.000000000000000
 -0.000000000000000 -0.000000000000000 0.000000000000000
 -0.000000000000000 0.000000000000000 -0.000000000000000
 47097.9219974743 1256700.62569690 100173.619458845
 46019.2674972623 1256776.11621347 99726.8853085460
 44858.5352211910 1256839.59607834 99455.3792732850
 -0.000000000000000 0.000000000000000 0.000000000000000
 -0.000000000000000 0.000000000000000 0.000000000000000
 -15689.5666588716 1257141.60202693 104394.735835563
 -16833.9808615242 1257113.32617701 104556.841743993
 -17951.1325932719 1257068.54859584 104908.778892486
 0.000000000000000 -0.000000000000000 0.000000000000000
 0.000000000000000 0.000000000000000 0.000000000000000
 -0.000000000000000 -0.000000000000000 -0.000000000000000
 0.000000000000000 0.000000000000000 0.000000000000000
 -2138.79908033000 -1260149.13030762 -59741.3244111385
 -1686.72893951748 -1260151.72344909 -59701.0866964052
 0.000000000000000 0.000000000000000 0.000000000000000
 -0.000000000000000 -0.000000000000000 0.000000000000000
 -0.000000000000000 0.000000000000000 -0.000000000000000
 30831.6743635464 -1260063.08130487 -53290.4297916391
 31264.8901013491 -1260046.02483636 -53441.1158192157
 -0.000000000000000 -0.000000000000000 0.000000000000000
 -0.000000000000000 -0.000000000000000 -0.000000000000000
 -0.000000000000000 0.000000000000000 -0.000000000000000
 63828.4997312658 -1259757.01777722 -22081.8862885947
 64051.4905255030 -1259739.69883374 -22421.6115099216
 -0.000000000000000 -0.000000000000000 0.000000000000000
 0.000000000000000 -0.000000000000000 0.000000000000000
 -0.000000000000000 -0.000000000000000 0.000000000000000
 70341.6570269424 1258994.14257983 39182.0259217960
 70063.5534467032 1259021.41900753 38802.0086803989
 -0.000000000000000 0.000000000000000 -0.000000000000000
 0.000000000000000 0.000000000000000 -0.000000000000000
 -0.000000000000000 0.000000000000000 0.000000000000000
 38144.6312650198 1258409.81500429 80617.3401041559
 37284.4473284197 1258458.97888453 80251.4758198389
 36358.2441473030 1258500.31037636 80027.9812570516
 -0.000000000000000 0.000000000000000 -0.000000000000000
 -0.000000000000000 -0.000000000000000 -0.000000000000000
 -11912.7000537880 1258692.70346393 84262.6651788318
 -12830.6474376947 1258674.92402578 84393.3707940417
 -13729.0650115381 1258646.29729903 84678.4623637788
 0.000000000000000 -0.000000000000000 -0.000000000000000
 -0.000000000000000 0.000000000000000 0.000000000000000
 -0.000000000000000 -0.000000000000000 -0.000000000000000
 -0.000000000000000 -0.000000000000000 -0.000000000000000
 -1245.92498923668 -1260726.78138237 -45998.4923135708
 -898.357819840287 -1260728.16298267 -45968.7169117844
 0.000000000000000 0.000000000000000 0.000000000000000
 -0.000000000000000 -0.000000000000000 -0.000000000000000
 -0.000000000000000 -0.000000000000000 -0.000000000000000
 23954.6054697672 -1260677.22474312 -40847.8005493488
 24284.9555153434 -1260667.07698918 -40965.7521610078
 0.000000000000000 -0.000000000000000 0.000000000000000
 -0.000000000000000 -0.000000000000000 -0.000000000000000
 0.000000000000000 -0.000000000000000 0.000000000000000
 48961.1898834658 -1260503.51161137 -16826.4678277602
 49129.7155921187 -1260493.41740902 -17089.3719407185
 0.000000000000000 -0.000000000000000 0.000000000000000
 -0.000000000000000 -0.000000000000000 -0.000000000000000
 -0.000000000000000 0.000000000000000 0.000000000000000
 53942.7279289719 1260052.99390882 30100.9229752660
 53730.0330124831 1260069.07962023 29806.5270779695
 -0.000000000000000 -0.000000000000000 -0.000000000000000
 0.000000000000000 0.000000000000000 0.000000000000000
 0.000000000000000 -0.000000000000000 0.000000000000000
 29412.1788398059 1259706.50069369 61837.5837570371
 28757.2428496511 1259735.54951016 61553.2062769536
 28051.6556055351 1259759.96550759 61378.8631456501
 -0.000000000000000 -0.000000000000000 0.000000000000000
 -0.000000000000000 -0.000000000000000 0.000000000000000
 -8681.11339988879 1259871.40234871 64792.8910683040
 -9383.66151549018 1259861.22844352 64892.7028278031
 -10072.7008719630 1259844.59694215 65111.9280299137
 -0.000000000000000 -0.000000000000000 0.000000000000000
 -0.000000000000000 0.000000000000000 -0.000000000000000
 0.000000000000000 0.000000000000000 -0.000000000000000
 0.000000000000000 -0.000000000000000 -0.000000000000000
 -664.252188615528 -1261144.83290697 -32599.0815825529
 -418.187135760110 -1261145.46491483 -32578.7102757308
 -0.000000000000000 0.000000000000000 -0.000000000000000
 -0.000000000000000 0.000000000000000 -0.000000000000000
 -0.000000000000000 0.000000000000000 0.000000000000000
 17092.0364469786 -1261120.53713592 -28849.3331474399
 17324.4302717280 -1261115.42733675 -28933.9587328728
 -0.000000000000000 -0.000000000000000 0.000000000000000
 -0.000000000000000 0.000000000000000 0.000000000000000
 -0.000000000000000 -0.000000000000000 -0.000000000000000
 34596.3575169057 -1261036.29083624 -11831.9972744236
 34714.1226349280 -1261031.28663408 -12018.9325086924
 0.000000000000000 -0.000000000000000 0.000000000000000
 0.000000000000000 -0.000000000000000 -0.000000000000000
 0.000000000000000 -0.000000000000000 -0.000000000000000
 38106.8252593022 1260810.75585627 21296.4481724288
 37956.8604038986 1260818.80018814 21086.9808028886
 -0.000000000000000 0.000000000000000 0.000000000000000
 -0.000000000000000 -0.000000000000000 0.000000000000000
 0.000000000000000 -0.000000000000000 0.000000000000000
 20866.3733009089 1260636.65834236 43694.8627144112
 20406.1904780631 1260651.20670869 43491.9915968108
 19910.1988090365 1260663.43294832 43367.3117601926
 0.000000000000000 0.000000000000000 0.000000000000000
 -0.000000000000000 -0.000000000000000 0.000000000000000
 -5884.52997241834 1260718.33714018 45870.2259037198
 -6380.22833266526 1260713.37517231 45940.2793529157
 -6867.15911676954 1260705.16062536 46095.2385522868
 0.000000000000000 -0.000000000000000 -0.000000000000000
 -0.000000000000000 -0.000000000000000 0.000000000000000
 0.000000000000000 -0.000000000000000 -0.000000000000000
 -0.000000000000000 -0.000000000000000 0.000000000000000
 -307.791122456021 -1261416.20758680 -19454.7531702144
 -161.041099062311 -1261416.41744073 -19442.9111942183
 0.000000000000000 -0.000000000000000 0.000000000000000
 0.000000000000000 -0.000000000000000 0.000000000000000
 0.000000000000000 0.000000000000000 0.000000000000000
 10246.5299756823 -1261407.70336146 -17176.8868766011
 10384.5286019743 -1261405.88046084 -17227.8037915332
 -0.000000000000000 0.000000000000000 -0.000000000000000
 0.000000000000000 -0.000000000000000 0.000000000000000
 0.000000000000000 0.000000000000000 -0.000000000000000
 20604.7519073476 -1261378.42585366 -7024.37959728242
 20674.3721406857 -1261376.65923561 -7136.16081329359
 -0.000000000000000 -0.000000000000000 -0.000000000000000
 -0.000000000000000 0.000000000000000 0.000000000000000
 0.000000000000000 0.000000000000000 0.000000000000000
 22691.1838306298 1261298.28954090 12695.1130961610
 22601.9976119947 1261301.14584430 12569.8096543240
 -0.000000000000000 0.000000000000000 0.000000000000000
 0.000000000000000 -0.000000000000000 0.000000000000000
 0.000000000000000 -0.000000000000000 -0.000000000000000
 12461.4423828998 1261236.26039552 26023.8128687535
 12188.4049699541 1261241.43124422 25902.2357389159
 11894.0299743060 1261245.77632221 25827.4017141549
 0.000000000000000 0.000000000000000 0.000000000000000
 -0.000000000000000 0.000000000000000 0.000000000000000
 -3403.41615850381 1261265.06479081 27354.7804898586
 -3698.37990249297 1261263.33428980 27396.2494006485
 -3988.43117135650 1261260.44333545 27488.4960121852
 0.000000000000000 -0.000000000000000 0.000000000000000
 0.000000000000000 -0.000000000000000 -0.000000000000000
 0.000000000000000 -0.000000000000000 -0.000000000000000
 -0.000000000000000 -0.000000000000000 0.000000000000000
 -87.4273498126887 -1261549.68101665 -6467.27161982248
 -38.6598104160482 -1261549.70334738 -6463.38986278768
 -0.000000000000000 -0.000000000000000 0.000000000000000
 -0.000000000000000 0.000000000000000 0.000000000000000
 0.000000000000000 -0.000000000000000 -0.000000000000000
 3413.93038044320 -1261548.74961815 -5703.36174556578
 3459.68972208943 -1261548.54800866 -5720.35691321833
 -0.000000000000000 0.000000000000000 -0.000000000000000
 0.000000000000000 -0.000000000000000 -0.000000000000000
 -0.000000000000000 0.000000000000000 -0.000000000000000
 6842.48184801128 -1261545.55492826 -2328.99159868329
 6865.51619451575 -1261545.36056967 -2366.18500291435
 -0.000000000000000 -0.000000000000000 -0.000000000000000
 -0.000000000000000 -0.000000000000000 0.000000000000000
 -0.000000000000000 0.000000000000000 -0.000000000000000
 7534.57490726118 1261536.71019525 4217.81100516969
 7504.97912265689 1261537.02534152 4176.11060463202
 -0.000000000000000 -0.000000000000000 0.000000000000000
 -0.000000000000000 0.000000000000000 0.000000000000000
 0.000000000000000 0.000000000000000 0.000000000000000
 4143.93914677811 1261529.85394153 8642.12367152971
 4053.44067348087 1261530.42474650 8601.62639178061
 3955.85391416699 1261530.90437221 8576.68074435577
 -0.000000000000000 -0.000000000000000 0.000000000000000
 0.000000000000000 -0.000000000000000 -0.000000000000000
 -1113.18630095113 1261533.02095210 9090.03755093021
 -1211.09770360421 1261532.83180067 9103.76022840332
 -1307.42804589908 1261532.51430387 9134.38038529108
 -0.000000000000000 0.000000000000000 0.000000000000000
 0.000000000000000 0.000000000000000 -0.000000000000000
 0.000000000000000 0.000000000000000 -0.000000000000000
 -0.000000000000000 -0.000000000000000 -0.000000000000000
 87.4289251784818 -1261549.68083852 6467.30634492065
 38.6611954667992 -1261549.70316933 6463.42460541560
 0.000000000000000 -0.000000000000000 0.000000000000000
 0.000000000000000 0.000000000000000 -0.000000000000000
 -0.000000000000000 -0.000000000000000 0.000000000000000
 -3413.92354305287 -1261548.74980634 5703.32421055121
 -3459.68213893201 -1261548.54820017 5720.31926570523
 0.000000000000000 0.000000000000000 0.000000000000000
 -0.000000000000000 -0.000000000000000 -0.000000000000000
 0.000000000000000 0.000000000000000 -0.000000000000000
 -6842.47538370290 -1261545.55499720 2328.97324519487
 -6865.50881126887 -1261545.36064400 2366.16679931888