# OOMMF OVF 2.0
#
# Segment count: 1
#
# Begin: Segment
# Begin: Header
#
# Title: Oxs_MinDriver::Magnetization
# Desc: Oxs vector field output
# Desc:  MIF source file: C:/Users/grl31/Documents/GitHub/phd-work/Skyrmions/stdprob3/drive-36/stdprob3.mif
# Desc:  Iteration: 482, State id: 1041
# Desc:  Stage: 0, Stage iteration: 482
# Desc:  Stage simulation time: -1 s
# Desc:  Total simulation time: -2 s
# meshunit: m
# meshtype: rectangular
# xbase: 3.1249999999999999e-09
# ybase: 3.1249999999999999e-09
# zbase: 3.1249999999999999e-09
# xnodes: 16
# ynodes: 16
# znodes: 16
# xstepsize: 6.2499999999999997e-09
# ystepsize: 6.2499999999999997e-09
# zstepsize: 6.2499999999999997e-09
# xmin: 0
# ymin: 0
# zmin: 0
# xmax: 9.9999999999999995e-08
# ymax: 9.9999999999999995e-08
# zmax: 9.9999999999999995e-08
# valuedim: 3
# valuelabels: Magnetization_x Magnetization_y Magnetization_z
# valueunits: A/m A/m A/m
#
# End: Header
#
# Begin: Data Text
 502325.662925495 -1157220.54133715 -7679.71306526778
 609584.817031898 -1103905.16502735 -36731.0276072811
 745907.111135068 -1015078.83800115 -69187.8972027006
 880581.958178749 -898173.518612486 -97000.9088220277
 999396.716396518 -761141.504088548 -115841.464634358
 1096926.78028015 -610853.912299792 -123120.134223543
 1171857.59905058 -452162.904324503 -117677.127850754
 1224094.52764662 -288457.364814566 -99671.2947080383
 1253612.11011576 -122550.828040158 -70621.5465473944
 1260381.64705369 43210.2938734686 -33472.4542353958
 1244363.83479863 207484.809635070 7624.39078899304
 1205205.59354890 369792.970208603 47770.9889125737
 1142476.13663394 528801.689534508 81648.5228671863
 1057883.61217343 679461.374379634 103749.384287303
 960771.383401016 810238.671451930 109458.097190040
 877787.415515819 900611.220705403 99690.0858688348
 447945.208176755 -1179127.92408463 23491.7013925431
 539332.592585738 -1140464.89850931 -3098.50961810743
 668191.622780112 -1069434.90541338 -37126.3955821044
 806386.573743144 -967586.800219302 -71175.1968534010
 937835.723240677 -837849.985180440 -100104.892316648
 1053081.95869987 -684296.457640532 -119608.432982051
 1146258.97570972 -511532.837148172 -126388.085051599
 1213208.55496337 -324972.744978539 -118605.008763357
 1250990.56734640 -131314.082166794 -96584.9012733606
 1258424.33639024 62398.9001268894 -63434.9884740103
 1236106.80420981 250965.008086138 -24616.3405380187
 1185353.64334134 431631.237660165 13440.4543200864
 1107852.16145476 601861.491376703 44449.5722902673
 1007964.55297304 756047.913630310 62836.6387076318
 898358.860061112 883343.656873878 64844.2235618432
 809517.464515040 966141.795404763 52923.8768058077
 368056.714956223 -1205879.36231031 44030.0925352675
 442030.959398615 -1181421.56280616 20028.7989840328
 556756.290220976 -1131964.88697210 -15078.4243400265
 693088.105653182 -1052620.06423533 -56296.6170407871
 837115.993412024 -938617.604361993 -98910.2485817566
 976612.366354460 -786769.273805351 -137010.315663808
 1099174.33248094 -597148.938187182 -163640.958674655
 1191972.13385233 -375685.195693837 -172082.819522903
 1244117.02303481 -136070.512768104 -158767.375329407
 1250933.23702685 103458.660826334 -126537.634403807
 1215191.14393486 328306.076097430 -84113.2273709670
 1143450.66520257 531345.448664355 -41737.5292804250
 1043155.20908749 709446.871387577 -7859.85692989257
 924163.344451275 858680.601765842 11796.9420885108
 803645.501414479 972361.737015296 14696.6446450404
 713076.088759753 1040698.20897911 4377.25778504708
 278115.598047156 -1229583.99052754 48211.5679086176
 335460.997195717 -1215867.31843932 26115.4021716526
 431720.316908427 -1185351.91711287 -10384.1939637120
 558002.706488911 -1129883.69485089 -59541.9732635298
 707101.546229720 -1037991.50592530 -118871.644497020
 869002.580458224 -896158.989920567 -182436.320014549
 1026729.72107789 -693033.538067290 -238914.264723151
 1154783.12716836 -428927.732912671 -272114.608326366
 1226158.98109655 -126743.260607808 -268364.919253092
 1228497.57705056 173022.099169400 -228924.632355007
 1170770.88786885 437923.910688558 -170492.250512944
 1071385.23883530 656632.932584815 -111876.238629346
 947502.315716625 830361.180049647 -65491.2459580930
 814750.012993324 962473.130978453 -37112.2539178891
 691684.307749299 1054680.80902816 -27760.4106604831
 605405.892916443 1106312.71027706 -33246.3956003174
 185893.535823018 -1247190.49924547 38844.3412866863
 227257.529463154 -1240799.57614011 17884.5763656372
 302079.273322669 -1224686.78576834 -20971.8933865853
 409945.322280810 -1190443.64664120 -79612.7366106195
 552121.189382349 -1123043.04683347 -159643.158678906
 726175.097714907 -998820.929786616 -258023.077645972
 916774.753030029 -788343.240941898 -359983.912955715
 1085501.55663551 -475194.063363030 -432927.711754950
 1178980.75367334 -92060.0223466113 -439407.289052365
 1171245.80421871 279311.649060345 -376454.113695434
 1085449.31336003 578265.312269791 -280995.458452107
 959755.200450951 796528.018304064 -189637.818440601
 821342.085915607 950008.566891594 -120126.315415615
 687309.777690039 1055122.61823281 -76622.1958976134
 572454.849179420 1122753.40170234 -57181.0767277194
 496172.228020187 1158533.67856839 -56234.0349185796
 93789.8094259305 -1257909.15795993 20431.6638415063
 119208.019404178 -1255921.52449977 57.6788591761025
 169775.961067685 -1249384.42373697 -42001.3771908482
 250727.572359456 -1231357.06845563 -111556.646337422
 370430.333133598 -1186427.60369305 -216148.884819354
 536497.681383831 -1083607.21705268 -359882.019473138
 743339.760808574 -871577.237224797 -528534.341809115
 947098.962214086 -502792.615295295 -664644.696583425
 1062070.00115526 -18728.6963079392 -680592.373965224
 1043184.93241794 427935.110627333 -565849.952538214
 936315.147495510 742368.707093486 -404662.919252259
 800885.990364846 938336.926111127 -263922.099212237
 667403.963296810 1057950.98386243 -163893.552158659
 548278.034091083 1131566.57613629 -102458.342868478
 451728.952907680 1175708.39634236 -72112.0710697514
 389692.620813055 1198124.55300356 -64704.3096928341
 1491.68404971591 -1261562.68818154 -2605.68336832861
 10338.6248355259 -1261323.44297947 -22488.1289991921
 33436.6877515176 -1259305.41945345 -67685.1487871444
 78554.5055809549 -1250408.48986254 -147841.905600430
 157102.331512225 -1220612.97639941 -277438.732331593
 283677.262163903 -1135162.62318313 -471680.464698452
 466688.725573339 -921892.573012355 -723785.291482457
 674381.522320582 -491694.968430155 -946041.780944159
 805180.535672082 104227.075199506 -965593.316406617
 795150.763755116 610957.648438103 -765516.456801284
 702871.417006186 911592.322289289 -516256.370438072
 593179.886386724 1066429.85407709 -320022.529891731
 490924.530042913 1146459.88634849 -190190.077856118
 402650.435264037 1190242.14828951 -112896.795064423
 332204.302419835 1214825.05478659 -73415.3841879754
 287072.543313614 1226974.40107542 -60602.0205936291
 -92127.5520446240 -1257924.51701184 -26226.9817886169
 -100821.618072495 -1256722.87155730 -45078.3357386448
 -108295.302675651 -1253550.90836775 -91824.1714786607
 -106909.432565781 -1244236.16008434 -178874.766487566
 -87338.1989671395 -1215581.37413603 -326011.338412762
 -36136.7764638105 -1130760.92181625 -558232.301106819
 63744.9528100489 -903487.688280558 -878177.663708006
 213416.440786687 -413761.544740570 -1172520.46370833
 350992.282308930 266346.527482326 -1182122.40312779
 402566.979820948 790133.555506809 -897317.236064794
 387486.573565882 1052745.29598738 -577174.954412927
 347036.630685318 1163378.13407564 -343025.254225117
 300310.692467259 1209682.26191723 -195017.291827192
 254659.687269256 1230826.79326651 -108458.653763351
 215035.551824879 1241489.62573473 -63345.4936311323
 188075.175666424 1246593.40258613 -46712.3949904109
 -188075.159417447 -1246593.40441316 -46712.4116553402
 -215035.527771258 -1241489.62910980 -63345.5091376340
 -254659.656813892 -1230826.79847213 -108458.666197030
 -300310.643097599 -1209682.27321453 -195017.297775859
 -347036.559206236 -1163378.15246881 -343025.264159234
 -387486.476630450 -1052745.32066547 -577174.974478653
 -402566.854207534 -790133.590633656 -897317.261488249
 -350992.133762414 -266346.564426553 -1182122.43890979
 -213416.292947705 413761.522889059 -1172520.49832826
 -63744.8282054610 903487.674213447 -878177.687225305
 36136.8714784284 1130760.91416354 -558232.310457515
 87338.2680797116 1215581.36911525 -326011.338618299
 106909.473844071 1244236.15653552 -178874.766501742
 108295.333740419 1253550.90667969 -91824.1578863039
 100821.633083794 1256722.87085900 -45078.3216323207
 92127.5615016084 1257924.51669466 -26226.9637821793
 -287072.521931943 -1226974.40522319 -60602.0379013655
 -332204.276123553 -1214825.06095296 -73415.4011418733
 -402650.403198956 -1190242.15822335 -112896.804695717
 -490924.486112548 -1146459.90322164 -190190.089539672
 -593179.828182089 -1066429.88147234 -320022.546486501
 -702871.345501494 -911592.358673440 -516256.403543886
 -795150.681474912 -610957.693163123 -765516.506571696
 -805180.446092691 -104227.112108859 -965593.387120260
 -674381.432384662 491694.952853328 -946041.853150445
 -466688.643628720 921892.578253661 -723785.337643529
 -283677.197286370 1135162.63125719 -471680.484285657
 -157102.282358504 1220612.98100229 -277438.739914629
 -78554.4751114672 1250408.49206324 -147841.903177139
 -33436.6666176473 1259305.42069737 -67685.1360838073
 -10338.6144428870 1261323.44341214 -22488.1095091441
 -1491.68335500212 1261562.68822401 -2605.66320263651
 -389692.595795794 -1198124.55985135 -64704.3335634263
 -451728.924974734 -1175708.40572203 -72112.0931237587
 -548278.004828903 -1131566.58891759 -102458.358298420
 -667403.924893543 -1057951.00629925 -163893.563711473
 -800885.947716975 -938336.957321387 -263922.117665946
 -936315.105465063 -742368.743165875 -404662.950326837
 -1043184.89141107 -427935.148333761 -565849.999621092
 -1062069.96300409 18728.6638235831 -680592.434394347
 -947098.924398039 502792.605590471 -664644.757811703
 -743339.719953789 871577.246670672 -528534.383691303
 -536497.647192779 1083607.22722980 -359882.039800428
 -370430.304980581 1186427.61163935 -216148.889450534
 -250727.552643766 1231357.07297885 -111556.640721967
 -169775.947439234 1249384.42600372 -42001.3648518423
 -119208.014213362 1255921.52499145 57.7010831613606
 -93789.8100160193 1257909.15748124 20431.6906042411
 -496172.200694437 -1158533.68860048 -56234.0693420737
 -572454.819994764 -1122753.41486434 -57181.1104665045
 -687309.746602352 -1055122.63671119 -76622.2203018701
 -821342.055688069 -950008.590639880 -120126.334279710
 -959755.169389925 -796528.051097394 -189637.837899661
 -1085449.29041959 -578265.341806469 -280995.486284044
 -1171245.78550617 -279311.675415909 -376454.152360353
 -1178980.73873648 92060.0061870583 -439407.332515270
 -1085501.54133728 475194.059176533 -432927.754708193
 -916774.736770941 788343.246028803 -359983.943222884
 -726175.080670890 998820.938785749 -258023.090778201
 -552121.170682000 1123043.05576530 -159643.160520669
 -409945.307490473 1190443.65207188 -79612.7315651274
 -302079.265842322 1224686.78782732 -20971.8808963422
 -227257.525912850 1240799.57645528 17884.5996132381
 -185893.538674006 1247190.49801336 38844.3672028591
 -605405.866479806 -1106312.72324791 -33246.4453828166
 -691684.280448297 -1054680.82571004 -27760.4571155703
 -814749.985342969 -962473.152995957 -37112.2899402061
 -947502.293253118 -830361.204023116 -65491.2669927596
 -1071385.22198923 -656632.956524371 -111876.259448165
 -1170770.87800872 -437923.927731102 -170492.274447315
 -1228497.56989669 -173022.111260385 -228924.661607025
 -1226158.97476826 126743.257410019 -268364.949677300
 -1154783.11952346 428927.738085186 -272114.632616015
 -1026729.71146767 693033.546472064 -238914.281642663
 -869002.568874474 896159.000331175 -182436.324052935
 -707101.532421886 1037991.51558505 -118871.642282831
 -558002.694590017 1129883.70126163 -59541.9631231754
 -431720.312190832 1185351.91895214 -10384.1801447970
 -335460.997721764 1215867.31788418 26115.4212604690
 -278115.602932715 1229583.98864405 48211.5877618099
 -713076.070886922 -1040698.22149092 4377.19465582455
 -803645.483077587 -972361.753038717 14696.5872030613
 -924163.324840019 -858680.623463514 11796.8990801338
 -1043155.19371393 -709446.893632637 -7859.88941497567
 -1143450.65837090 -531345.461634516 -41737.5513239780
 -1215191.14123333 -328306.079641642 -84113.2525665132
 -1250933.23502743 -103458.656498811 -126537.657707991
 -1244117.01927104 136070.523038514 -158767.396020480
 -1191972.12713748 375685.210288654 -172082.834171992
 -1099174.32305364 597148.953660925 -163640.965531852
 -976612.356774586 786769.286179210 -137010.312893587
 -837115.981282152 938617.616130051 -98910.2395675615
 -693088.095673822 1052620.07161072 -56296.6019972802
 -556756.288626715 1131964.88796085 -15078.4089794704
 -442030.965488634 1181421.56031457 20028.8115478945
 -368056.728243861 1205879.35786510 44030.1032048362
 -809517.463828806 -966141.800214429 52923.7995003520
 -898358.854591523 -883343.667324513 64844.1569737802
 -1007964.54630214 -756047.926681133 62836.5886887011
 -1107852.15555802 -601861.505061443 44449.5339634253
 -1185353.64176417 -431631.243026653 13440.4210740186
 -1236106.80475783 -250965.002639001 -24616.3685534748
 -1258424.33589316 -62398.8864121411 -63435.0118256924
 -1250990.56356176 131314.104559421 -96584.9198485517
 -1213208.54712719 324972.769828512 -118605.020831631
 -1146258.96673026 511532.856907741 -126388.086516278
 -1053081.94924124 684296.472255532 -119608.432645249
 -937835.715974944 837849.994041055 -100104.886225010
 -806386.567980737 967586.805801185 -71175.1862566011
 -668191.623366675 1069434.90526397 -37126.3893289442
 -539332.606966624 1140464.89172530 -3098.50343558705
 -447945.234788651 1179127.91390495 23491.7049033261
 -877787.426926011 -900611.219408401 99689.9971174601
 -960771.387636213 -810238.676310453 109458.024051342
 -1057883.61221472 -679461.382224531 103749.332489530
 -1142476.13633821 -528801.696847408 81648.4796427020
 -1205205.59472793 -369792.971093940 47770.9523136691
 -1244363.83681009 -207484.798619585 7624.36226986547
 -1260381.64719038 -43210.2727115400 -33472.4764069263
 -1253612.10649133 122550.855832653 -70621.5626562402
 -1224094.52028972 288457.392111259 -99671.3060615143
 -1171857.58951562 452162.927891062 -117677.132249936
 -1096926.77337052 610853.924435189 -123120.135575043
 -999396.711515326 761141.510637072 -115841.463718405
 -880581.953278593 898173.523821733 -97000.9050713516
 -745907.113579855 1015078.83604011 -69187.8996167232
 -609584.839800774 1103905.15250118 -36731.0261954095
 -502325.697633428 1157220.52629842 -7679.70895644906
 513649.925943873 -1152084.63416188 20351.4182527665
 627804.714930022 -1094252.58147764 -4686.01751128086
 769358.101457450 -999081.045370405 -38400.6174731638
 905095.072171649 -876005.190038576 -70478.7079551638
 1021347.70988086 -734457.221386536 -94714.7105429578
 1114068.01109648 -582087.944558712 -107589.601588207
 1183336.43431861 -423908.507308676 -107544.835135924
 1230214.27831453 -263032.573972822 -94531.0815511836
 1255519.97775593 -101679.096948367 -69859.6995303292
 1259682.92678988 58631.4564015823 -36203.6903265616
 1242676.45646804 217480.770424955 2601.91359475108
 1203719.76902375 375293.136015420 41990.6018064551
 1141520.09606645 531551.597930838 77033.7583956466
 1056489.62053463 681761.857472754 102858.554903512
 956642.645330355 814197.905143986 116043.316539299
 869364.770887738 906519.795845473 118220.919462451
 457339.798382717 -1175189.23437230 36331.8475947173
 554076.017261667 -1133307.47079549 12781.8094780884
 688162.505027617 -1057115.02681610 -22127.3060417536
 828623.102881113 -949421.301182780 -59433.8047833742
 959057.969056288 -814372.377151916 -92492.5631633200
 1070634.47068007 -657116.281027337 -116144.110136293
 1158542.16798165 -482999.320083509 -126653.593420034
 1219866.25941591 -297673.030715952 -121928.285651694
 1252831.77436655 -107445.312292632 -102066.061562342
 1256983.51005417 81580.1839248124 -69903.9338066075
 1232970.65294446 265319.170318345 -30635.5636189601
 1181575.81801399 441970.497823051 9491.90484359206
 1103574.21207585 609679.456563444 44320.9837957590
 1002196.41783028 763185.156689490 68557.9143202226
 889228.925090801 891372.166646314 79227.5850260973
 796594.124641355 975055.662731392 79080.2508928301
 375651.072514069 -1203384.44643735 47974.7507617764
 453857.472310437 -1176816.75516431 25790.5120436025
 573611.634045887 -1123566.61838420 -10824.8907088494
 713362.072361637 -1039020.25339160 -55685.7044214130
 858191.207404332 -918957.763952465 -102829.521657618
 995434.670266001 -761263.050708898 -145388.499465240
 1112948.97998807 -567483.109073172 -175661.378165808
 1199118.88167883 -344837.293103457 -186415.073975618
 1244929.84194783 -107227.079934984 -173785.709640668
 1247149.23292678 128273.593172920 -140406.933673569
 1208718.75619780 348628.480272857 -94903.0140576612
 1135446.37920800 547754.947112142 -47701.8739314147
 1033805.06044162 723006.533035245 -7621.09654947291
 912802.015047928 870611.875682687 19413.2471181743
 789194.541610608 983739.461553242 31274.2417000461
 695937.452547922 1051764.82108491 31800.2230854311
 285272.956591695 -1227940.43127468 48281.1391471932
 346297.908016280 -1212812.56659461 26699.5904966158
 447355.905773761 -1179519.13969411 -12518.9290101835
 577737.230240358 -1119515.47929957 -66739.9080147510
 728954.661716522 -1021093.47650948 -132448.647824318
 889568.709404000 -871325.345050514 -202507.000473707
 1041651.80078794 -660858.768761139 -264152.691800968
 1160665.18983822 -392941.890994400 -300004.030503775
 1222905.74630897 -91901.8139404277 -295981.457456210
 1218991.97368903 203562.912393064 -253318.257728763
 1158032.90177880 463490.317730647 -188907.264780038
 1057061.66711643 677626.716661179 -122442.213713137
 932103.055368481 847453.555185816 -67496.6435803885
 798111.891170183 976541.862221973 -30542.2890391005
 673293.042462770 1066805.25762466 -12347.1532982164
 585655.612837874 1117358.57162461 -8170.46433531570
 193940.806318915 -1245989.66600181 38028.2366146624
 238700.093934055 -1238671.40868028 16273.8253901547
 318160.005935568 -1220496.91966028 -26662.9076019225
 430489.620027738 -1182256.43022289 -92183.7901366999
 575500.943400143 -1107938.52288436 -181163.805914241
 748356.218065714 -973626.641581341 -289073.631804036
 931064.181945343 -752208.044602885 -398562.388657167
 1085700.20701874 -432942.646508371 -474726.401449022
 1165435.56594260 -52099.2815081475 -480203.121003332
 1150448.71914825 312925.580232404 -412425.456010326
 1062768.82104549 605898.020191232 -308154.917307627
 937335.271738792 818902.539798166 -205792.734530237
 799748.508543323 967585.571304550 -125418.962700746
 666460.135733757 1068712.29524158 -72348.7967845102
 551771.317597393 1133636.74900087 -44334.6964638110
 475430.802590844 1168029.87127454 -34945.7104258577
 103663.584847521 -1257131.96942412 20554.8910809140
 132288.606824784 -1254609.78579398 -1854.94293822029
 187437.192561981 -1246592.80235095 -49225.1448980935
 273172.487351123 -1225035.86199595 -127331.692430385
 396180.204864555 -1172776.90763957 -243279.676709338
 560516.057129647 -1057379.12839426 -399149.795759670
 755339.299933921 -830109.457052242 -576133.892603724
 936136.274048972 -454346.888143896 -713279.196782453
 1030489.71889781 21192.0114892989 -727455.338020082
 1005523.80348177 457037.978160473 -609579.853726730
 901288.877100359 765776.812456509 -439105.527678799
 770140.439744415 957643.660095120 -285222.289221681
 640617.411562036 1073022.04525983 -172575.934906724
 524720.773214825 1142820.35764709 -100891.878876173
 430253.023789035 1184292.34924353 -62316.9155412858
 369269.928650860 1205371.44134441 -47632.3325531000
 13720.2862956871 -1261491.60611418 -335.210959704702
 25601.1587230902 -1261089.65134182 -23385.9545361586
 53310.8928885816 -1258214.96737316 -74849.6860148912
 103703.155075771 -1246459.06378808 -164726.709573246
 186459.207721786 -1209313.27982893 -307154.335805480
 311839.758994571 -1109074.49211796 -514061.442400074
 480101.364282970 -876321.127148815 -770138.554446675
 655572.420885078 -441815.890532398 -983144.420096507
 757538.453496993 131184.578357472 -1000237.73613752
 743029.519084401 622358.094976098 -807543.785999173
 658188.974008366 922541.615108278 -554304.675973583
 556627.785194255 1078235.05617087 -345143.598105032
 461109.538925780 1156785.84081506 -201925.586591682
 378080.665329760 1198161.21385460 -114079.564503163
 311178.012023550 1220762.62302667 -66755.4789741298
 267942.777976608 1231858.96684402 -47744.9940318891
 -77369.6574702332 -1259017.09388272 -20960.0651955071
 -83249.3942738157 -1258046.83335263 -44012.8886056036
 -86103.3387978304 -1254827.02542684 -97697.4013229470
 -78830.3742017986 -1243898.26879267 -195069.987227059
 -53340.1780545602 -1209267.32304242 -355495.144475801
 420.284263725013 -1110238.43368013 -599099.219378210
 91498.2025222384 -863603.309625387 -915077.501339767
 212062.957660909 -377843.466307572 -1184826.16778823
 314924.606807977 262945.561237456 -1192992.68848192
 354025.114445143 772985.249462319 -932045.842957701
 342498.443054188 1046204.43306565 -616198.451522069
 309579.841169015 1165446.65400359 -370734.203348660
 270232.426676383 1214375.52050108 -209322.625865606
 230685.172944110 1235209.42292211 -112211.690242720
 195418.264731389 1244909.81524168 -59671.4726083729
 170923.165131126 1249360.67257511 -37849.8660921128
 -170923.149280681 -1249360.67426408 -37849.8819196704
 -195418.242041338 -1244909.81797507 -59671.4898901288
 -230685.138645830 -1235209.42819682 -112211.702689964
 -270232.378293492 -1214375.52934546 -209322.637016974
 -309579.772612596 -1165446.66759041 -370734.217884571
 -342498.352093686 -1046204.45194266 -616198.470030081
 -354024.994790000 -772985.276850980 -932045.865692514
 -314924.466035682 -262945.590121589 -1192992.71927649
 -212062.816501607 377843.444127137 -1184826.20012663
 -91498.0818713746 863603.302496943 -915077.520131046
 -420.193935703254 1110238.43040424 -599099.225512387
 53340.2416729114 1209267.32065691 -355495.143044852
 78830.4177614581 1243898.26713188 -195069.980214290
 86103.3633267842 1254827.02491624 -97697.3862630501
 83249.4098967660 1258046.83304431 -44012.8678680716
 77369.6666071622 1259017.09363590 -20960.0462943609
 -267942.757866113 -1231858.97056024 -47745.0110096428
 -311177.984943442 -1220762.62892262 -66755.4973872121
 -378080.636743115 -1198161.22168998 -114079.576950708
 -461109.492678559 -1156785.85702462 -201925.599339165
 -556627.727702669 -1078235.07999733 -345143.616389867
 -658188.903706211 -922541.646290696 -554304.707553727
 -743029.437335368 -622358.129014834 -807543.834984328
 -757538.360547402 -131184.610842589 -1000237.80227313
 -655572.330756642 441815.882455033 -983144.483825108
 -480101.284625335 876321.134948232 -770138.595230169
 -311839.694628377 1109074.50054370 -514061.463267562
 -186459.159123696 1209313.28604542 -307154.340831889
 -103703.123512070 1246459.06738685 -164726.702212776
 -53310.8730988942 1258214.96899890 -74849.6727813786
 -25601.1540768444 1261089.65178049 -23385.9359669311
 -13720.2849814899 1261491.60613545 -335.184714722842
 -369269.906749957 -1205371.44704439 -47632.3580976650
 -430253.000869008 -1184292.35635424 -62316.9386531010
 -524720.742735752 -1142820.37021025 -100891.895087296
 -640617.379093254 -1073022.06252856 -172575.948062291
 -770140.397958117 -957643.687049555 -285222.311550131
 -901288.831716273 -765776.847751275 -439105.559279986
 -1005523.76016824 -457038.009772565 -609579.901472482
 -1030489.67698561 -21192.0324047659 -727455.396782234
 -936136.233883393 454346.885381331 -713279.251257075
 -755339.258330999 830109.469353008 -576133.929423877
 -560516.019582657 1057379.14235615 -399149.811499808
 -396180.173384348 1172776.91777960 -243279.679092788
 -273172.462462587 1225035.86841239 -127331.684093915
 -187437.182750014 1246592.80432411 -49225.1322907696
 -132288.602948616 1254609.78623963 -1854.91795262689
 -103663.588787568 1257131.96868030 20554.9167018875
 -475430.775541769 -1168029.88118216 -34945.7472703963
 -551771.290942663 -1133636.76056590 -44334.7324799106
 -666460.110630945 -1068712.30918622 -72348.8220401577
 -799748.479697282 -967585.592713217 -125418.981476691
 -937335.245985244 -818902.564131474 -205792.755002776
 -1062768.79540073 -605898.049447781 -308154.948227050
 -1150448.70013864 -312925.602726781 -412425.491969572
 -1165435.54977383 52099.2712294512 -480203.161359517
 -1085700.18925527 432942.650567189 -474726.438372554
 -931064.161157588 752208.058046522 -398562.411846314
 -748356.196337877 973626.655341776 -289073.641706824
 -575500.923482883 1107938.53378482 -181163.802521473
 -430489.603059110 1182256.43712471 -92183.7808626803
 -318159.995179647 1220496.92282606 -26662.8910353473
 -238700.093476768 1238671.40849689 16273.8460562858
 -193940.809892322 1245989.66461882 38028.2637041093
 -585655.588227645 -1117358.58412853 -8170.51840225837
 -673293.018042793 -1066805.27245854 -12347.2032643268
 -798111.867868473 -976541.880101405 -30542.3262778648
 -932103.034356525 -847453.576253845 -67496.6692280515
 -1057061.65089359 -677626.737977801 -122442.235795630
 -1158032.89147248 -463490.334250566 -188907.287427308
 -1218991.96686745 -203562.920809862 -253318.283791230
 -1222905.73935333 91901.8141687800 -295981.486123904
 -1160665.18112251 392941.899702384 -300004.052817757
 -1041651.78958317 660858.781029687 -264152.705292021
 -889568.696769186 871325.357198596 -202507.003706205
 -728954.646912884 1021093.48832775 -132448.638187552
 -577737.214170766 1119515.48840069 -66739.8944568804
 -447355.898403554 1179519.14268458 -12518.9106212541
 -346297.907909409 1212812.56621727 26699.6090233878
 -285272.960407692 1227940.42950588 48281.1615860303
 -695937.437675879 -1051764.83304794 31800.1528884353
 -789194.525490648 -983739.476499954 31274.1783287820
 -912801.998937684 -870611.893654799 19413.1986320233
 -1033805.04874749 -723006.549408135 -7621.12958144522
 -1135446.37110427 -547754.961354089 -47701.9032858183
 -1208718.75274385 -348628.485477868 -94903.0389276492
 -1247149.23064163 -128273.592028932 -140406.955016284
 -1244929.83850811 107227.088442394 -173785.729032287
 -1199118.87636669 344837.304206677 -186415.087606959
 -1112948.97196671 567483.122594190 -175661.385306925
 -995434.660437682 761263.064093335 -145388.496675280
 -858191.194919586 918957.776851562 -102829.510576881
 -713362.062866912 1039020.26085336 -55685.6868273427
 -573611.628558749 1123566.62133348 -10824.8753526252
 -453857.475116278 1176816.75366248 25790.5311951256
 -375651.081469205 1203384.44318608 47974.7621952907
 -796594.124824509 -975055.669797893 79080.1619182053
 -889228.923920811 -891372.174322136 79227.5117987228
 -1002196.41173531 -763185.169846062 68557.8569594162
 -1103574.20612611 -609679.470472131 44320.9406138948
 -1181575.81581876 -441970.504429481 9491.87049729316
 -1232970.65225925 -265319.170259640 -30635.5917044719
 -1256983.50945824 -81580.1743387561 -69903.9557097289
 -1252831.77140129 107445.329198934 -102066.080162788
 -1219866.25382220 297673.048364780 -121928.298528125
 -1158542.16159894 482999.333772968 -126653.599599363
 -1070634.46495987 657116.290979356 -116144.106559795
 -959057.962070783 814372.386282971 -92492.5551997062
 -828623.095072322 949421.308529167 -59433.7962987799
 -688162.502579022 1057115.02867112 -22127.2935710374
 -554076.027809633 1133307.46555093 12781.8172491691
 -457339.815332992 1175189.22752945 36331.8555660677
 -869364.783439153 -906519.797042286 118220.817985504
 -956642.652396644 -814197.908736272 116043.233081241
 -1056489.62274009 -681761.863309523 102858.493563706
 -1141520.09629802 -531551.604327079 77033.7108285073
 -1203719.76941665 -375293.138946221 41990.5643491752
 -1242676.45737617 -217480.765586208 2601.88431805777
 -1259682.92693863 -58631.4399787648 -36203.7117473598
 -1255519.97501172 101679.120310623 -69859.7148461261
 -1230214.27264746 263032.595641200 -94531.0950094962
 -1183336.42798816 423908.523406392 -107544.841338807
 -1114068.00596832 582087.954057164 -107589.603300050
 -1021347.70449503 734457.228810563 -94714.7110516706
 -905095.066779988 876005.195786059 -70478.7057579106
 -769358.102138619 999081.044843964 -38400.6175224916
 -627804.730180790 1094252.57275341 -4686.01153680978
 -513649.956517454 1152084.62042603 20351.4241856819
 535475.186562230 -1140924.34615571 55743.9848258495
 653554.359579185 -1078601.35608339 32175.2179336418
 798525.800207239 -976674.723401797 -3530.15443906305
 934243.328140627 -846803.711753317 -40771.4177394148
 1046944.09338274 -700219.552803847 -71764.0168965841
 1133838.15286126 -545470.492116028 -91773.7231772362
 1196473.37376727 -387672.322454861 -98544.7471323416
 1237122.48863184 -229528.073306398 -91620.0993482280
 1257421.89962578 -72517.2347628855 -71978.1072465796
 1258150.55549536 82760.6058915581 -41920.0755978692
 1239132.29888983 236805.768455068 -4858.47644501784
 1198992.71133977 390813.117872951 35085.8371922936
 1135500.94022183 544785.892579974 73453.2294738723
 1048005.57753214 694288.363020820 105817.812084508
 944078.720381347 826865.984226240 128675.734976121
 852814.314453395 918927.458462825 140817.264798723
 476946.891134727 -1166476.82903605 58334.3918960184
 577774.523507151 -1120915.26656405 35707.0873733270
 716376.347192386 -1038437.84254940 -1098.75548011640
 858542.878174495 -923363.229298835 -43056.9858865639
 986886.847600210 -781570.668697834 -82164.8999506100
 1093156.84917363 -619677.976881612 -112056.856067100
 1173908.18788254 -443900.647493496 -128223.291550888
 1227817.08716387 -260000.842195974 -128117.888855403
 1254470.89273190 -73608.2724887281 -111507.992666924
 1254122.03318763 110399.558923720 -80865.9024665379
 1227292.00561386 289176.934009772 -40993.4715774205
 1174012.43340787 461778.680920453 2164.94111878125