# OOMMF OVF 2.0
#
# Segment count: 1
#
# Begin: Segment
# Begin: Header
#
# Title: Oxs_MinDriver::Magnetization
# Desc: Oxs vector field output
# Desc:  MIF source file: C:/Users/grl31/Documents/GitHub/phd-work/Skyrmions/stdprob3/drive-224/stdprob3.mif
# Desc:  Iteration: 1579, State id: 3209
# Desc:  Stage: 0, Stage iteration: 1579
# Desc:  Stage simulation time: -1 s
# Desc:  Total simulation time: -2 s
# meshunit: m
# meshtype: rectangular
# xbase: 3.1249999999999999e-09
# ybase: 3.1249999999999999e-09
# zbase: 3.1249999999999999e-09
# xnodes: 16
# ynodes: 16
# znodes: 16
# xstepsize: 6.2499999999999997e-09
# ystepsize: 6.2499999999999997e-09
# zstepsize: 6.2499999999999997e-09
# xmin: 0
# ymin: 0
# zmin: 0
# xmax: 9.9999999999999995e-08
# ymax: 9.9999999999999995e-08
# zmax: 9.9999999999999995e-08
# valuedim: 3
# valuelabels: Magnetization_x Magnetization_y Magnetization_z
# valueunits: A/m A/m A/m
#
# End: Header
#
# Begin: Data Text
 445716.479242955 -1147376.32775157 -276430.485955388
 527520.065141737 -1108413.34871283 -291018.659516918
 642772.996834400 -1040623.44349323 -309022.902568345
 769160.288057917 -945351.703864513 -325963.246692135
 892726.502533056 -824440.531875821 -338949.305935805
 1004154.24864145 -681016.351533124 -345601.511569011
 1097027.36317889 -519363.337312123 -344008.894088124
 1166877.34369254 -344916.263123963 -333135.808835676
 1210932.00911893 -164141.619807944 -313449.563497816
 1228292.68056097 16108.2998586184 -287379.617361693
 1220013.35711670 189582.393368259 -259182.089467141
 1188865.26562931 351160.129474889 -234169.542354027
 1139197.18037307 496389.711673683 -217661.363805174
 1077511.92062790 620300.773488140 -213879.504005723
 1014062.33523575 716152.306745443 -224394.484598792
 965626.156279512 774271.994218620 -244168.868196848
 411380.359341524 -1167846.51693885 -241764.645349105
 485113.139097775 -1135629.97006554 -257990.783328781
 595609.344809876 -1075944.98861726 -281320.672478072
 722112.724111648 -987854.455654007 -306995.470715013
 850858.136003696 -870511.891999299 -331359.184576299
 971389.359630431 -724564.617541395 -350654.043072122
 1074908.42693302 -552958.978923537 -361050.789024458
 1153897.03157258 -361732.128583510 -359473.140300349
 1202879.77839083 -160088.760625482 -344965.590137293
 1219665.54385692 41137.6795621716 -319801.631276938
 1205810.25334285 232124.080769507 -289291.332360838
 1165823.80472563 405798.515243465 -260253.438555985
 1106126.48840546 557510.175286799 -239198.718680597
 1035009.11618021 683353.615856525 -230940.243436764
 964073.602034355 778360.874529926 -237204.278588030
 911549.809388363 834582.178045422 -253177.732061791
 351102.005818201 -1193497.79402671 -209379.626713712
 415526.510810972 -1169193.98321212 -227755.525405608
 517722.640557143 -1121064.21551022 -258317.097916410
 641860.288914921 -1044700.33207718 -296927.628540759
 776136.439747078 -934890.153689454 -339325.888122603
 909510.725347832 -787487.810021455 -379740.201274275
 1029875.92738798 -601862.272750625 -410690.649692879
 1124246.98856598 -383992.663390854 -424461.746310877
 1181625.01741296 -147967.495100302 -416434.111879086
 1197130.11781512 87209.5724562720 -388359.887747057
 1173678.09452222 304531.719670610 -348266.554627488
 1119658.81231117 493755.588283041 -306788.190731274
 1045562.10381949 650887.254933069 -273304.041940873
 962667.109674503 774795.617474683 -253994.523586466
 884299.298527809 864023.832707575 -251051.783613444
 829139.372955982 914441.765591670 -260525.600420967
 272244.018665828 -1217298.23500210 -188726.342306565
 326752.629532462 -1200344.27431687 -209656.321457937
 417541.380544259 -1164268.04573620 -248371.786098496
 534850.724420221 -1101830.16557156 -302414.318018613
 670883.675160584 -1003035.44804809 -367946.212483483
 815972.334349053 -856958.797575971 -437447.367980488
 955387.854416137 -656173.039939160 -498217.241983941
 1068978.05883885 -404477.972000958 -534072.009008220
 1136967.31159784 -122967.065190790 -532666.747746930
 1150125.21813814 155401.006115948 -494582.592515959
 1114278.27068426 402111.448272303 -433866.050259973
 1044415.78651093 603851.366531366 -368929.021552801
 956627.719771734 760058.283302102 -314204.141709095
 865063.810835390 875260.735646538 -277727.706103278
 783439.107931150 953500.500493135 -261933.943280244
 728641.935016546 995616.814872844 -263396.126389040
 180534.975758064 -1235372.44683973 -181139.369095210
 223994.243763687 -1224523.01383839 -204742.272771976
 299757.121390909 -1199243.71599595 -252011.128203926
 403834.726656734 -1150703.66977280 -323029.424103210
 533605.805963843 -1064835.73371789 -415859.513487574
 683215.540438831 -922914.789838790 -522488.513671499
 837851.595301300 -707229.116271764 -624004.096354727
 970455.609074482 -415899.934284886 -690501.691813029
 1049838.10191655 -79257.0040350595 -695059.506801104
 1060767.90470033 247895.972106033 -636292.755176604
 1013741.77457704 521205.970101032 -540575.047636663
 932305.647679785 727078.216283125 -440128.251342582
 837855.945160871 873232.867988906 -356386.313347476
 745598.136364246 972867.903990593 -298598.210567425
 667545.059817565 1036339.76079242 -268203.139863863
 617092.011416422 1068886.52382124 -261205.818385283
 79580.7808547829 -1245441.57685890 -184639.131466518
 110400.294904864 -1238948.59403491 -210636.148708571
 166861.993885873 -1221851.19941806 -266056.671399230
 249569.447705712 -1184846.89671290 -354121.946567323
 360835.132793498 -1111082.10911608 -476281.413308357
 500285.608954151 -974316.520639757 -626075.920316990
 656974.598864003 -744095.199795396 -778624.518627487
 801050.810263185 -409051.516411662 -884615.106821588
 890870.041930985 -11102.7544537001 -893183.479556345
 904309.448978067 364292.326913593 -800665.318319595
 856103.116829696 654988.519503084 -655459.322607126
 776545.897306476 853348.479176980 -510217.868544183
 689231.135297788 980651.643503583 -393487.264277763
 607873.049294702 1060062.39215009 -313540.287059178
 541465.114445319 1107255.89978273 -268978.313538473
 499542.509120103 1130239.40258569 -254097.629551474
 -28468.8623645573 -1245935.22068045 -195919.321820439
 -11981.9774149248 -1241557.39974233 -223475.023842162
 20809.7302904474 -1228700.59286915 -285326.548234120
 73380.4690283626 -1198222.89717015 -387848.715843303
 151221.361155552 -1131719.13682636 -536556.917940868
 259101.567204882 -996995.270083683 -728296.807779419
 393672.187141037 -751295.709191712 -933877.078282076
 531303.501452542 -372653.629031668 -1081848.09147715
 628794.563111655 83268.2045549335 -1090519.70840988
 657962.025706122 495984.005799032 -955319.459468505
 630740.882197248 789628.386029245 -755117.462664479
 575781.169667236 969791.496315081 -565269.784483958
 513984.781897433 1073362.58251048 -418642.856577331
 456310.702312098 1131786.61488566 -319982.862416182
 409274.361448368 1163784.69016495 -263911.202713447
 379540.325814819 1178403.67775172 -242617.691565450
 -142069.204953090 -1235588.93851070 -211390.035131652
 -141185.113820616 -1230646.84440131 -239007.403482622
 -135346.797831546 -1216911.99498207 -303901.088685890
 -119844.447303720 -1185422.97511160 -414679.526197007
 -88401.7456282751 -1116954.81821380 -579781.421190609
 -33312.4369315719 -975874.321512663 -798817.263882569
 51211.3254593406 -712138.442227744 -1040089.26067194
 158496.793094779 -298800.614335812 -1215379.11384480
 259824.830194559 194401.232553922 -1219117.98006380
 323616.567121033 621448.204396618 -1049106.22801315
 345263.642776059 903739.815547815 -809689.319238905
 339317.449316553 1061676.69893073 -590978.583753936
 320082.111824802 1143416.08009668 -426258.771622449
 296573.439075125 1184651.37790570 -316535.525621109
 274673.635540757 1204941.88619067 -253414.434792216
 259684.924697622 1213350.15244766 -227803.815505775
 -259684.803413124 -1213350.10880994 -227804.186191009
 -274673.478514209 -1204941.83846525 -253414.831917618
 -296573.224055396 -1184651.31212439 -316535.973270488
 -320081.817214510 -1143415.96389545 -426259.304551413
 -339317.041882655 -1061676.47113414 -590979.226916748
 -345263.082425266 -903739.373148520 -809690.051966972
 -323615.816474862 -621447.434977269 -1049106.91533629
 -259823.901187512 -194400.155406189 -1219118.34982036
 -158495.804599368 298801.703928830 -1215378.97487680
 -51210.4360685563 712139.236811424 -1040088.76041916
 33313.1518653404 975874.786650419 -798816.665832498
 88402.2865809926 1116955.06053798 -579780.871868682
 119844.850621766 1185423.09721973 -414679.060571411
 135347.100893908 1216912.05970202 -303900.694553906
 141185.343891965 1230646.88576617 -239007.054588565
 142069.393534922 1235588.97253508 -211389.709516020
 -379540.270669175 -1178403.61034037 -242618.105252057
 -409274.280256551 -1163784.61951118 -263911.640191665
 -456310.581241398 -1131786.52646843 -319983.347802054
 -513984.605514452 -1073362.44561502 -418643.424117054
 -575780.919224681 -969791.250619059 -565270.461105529
 -630740.517737714 -789627.943150432 -755118.230212284
 -657961.490707882 -495983.270412835 -955320.209738601
 -628793.822810303 -83267.1984436699 -1090520.21209050
 -531302.615692004 372654.658572115 -1081848.17184404
 -393671.303783237 751296.504493867 -933876.810843837
 -259100.800573925 996995.771323894 -728296.394349978
 -151220.747176417 1131719.41855813 -536556.496746442
 -73379.9929578348 1198223.04916120 -387848.336352366
 -20809.3608789099 1228700.67655175 -285326.214813901
 11982.2673690438 1241557.45098411 -223474.723612063
 28469.1039454764 1245935.26013571 -195919.035803194
 -499542.512796450 -1130239.29807691 -254098.087184026
 -541465.101240764 -1107255.79144983 -268978.786074479
 -607873.012882688 -1060062.26280122 -313540.794973520
 -689231.065972668 -980651.462949870 -393487.835684171
 -776545.779171910 -853348.195108008 -510218.523453579
 -856102.916013890 -654988.061717453 -655460.042351235
 -904309.108232083 -364291.635049663 -800666.017962728
 -890869.507372415 11103.6528485378 -893184.001562055
 -801050.104499547 409052.442202926 -884615.317823539
 -656973.825391446 744095.961340910 -778624.443480700
 -500284.880546922 974317.046891590 -626075.683405415
 -360834.504950903 1111082.43797358 -476281.121799371
 -249568.933563934 1184847.09212971 -354121.655071374
 -166861.580845714 1221851.31556436 -266056.397048206
 -110399.957400298 1238948.66764604 -210635.892627723
 -79580.4904841985 1245441.63210202 -184638.883987938
 -617092.067116867 -1068886.36993612 -261206.316510858
 -667545.104624681 -1036339.60153543 -268203.643711186
 -745598.161626698 -972867.723360564 -298598.736000465
 -837855.948936992 -873232.635383352 -356386.874409387
 -932305.615399820 -727077.889036285 -440128.860320993
 -1013741.67442075 -521205.505279931 -540575.683625759
 -1060767.68967556 -247895.335870914 -636293.361518710
 -1049837.72763638 79257.7847179511 -695059.983103498
 -970455.076974021 415900.741015847 -690501.953738561
 -837850.964178762 707229.821547679 -624004.144423184
 -683214.893889861 922915.324966952 -522488.413868830
 -533605.206938700 1064836.10455639 -415859.332563351
 -403834.204542486 1150703.91243034 -323029.212422035
 -299756.680438563 1199243.87237544 -252010.908536438
 -223993.865651208 1224523.11911092 -204742.056823812
 -180534.641094710 1235372.52713715 -181139.155012220
 -728642.035570143 -995616.597593233 -263396.669523413
 -783439.196015631 -953500.280213419 -261934.481690108
 -865063.880179652 -875260.495898856 -277728.245676178
 -956627.765148873 -760058.000042194 -314204.688757323
 -1044415.79680376 -603851.007295747 -368929.580399338
 -1114278.21922677 -402110.989663133 -433866.607458926
 -1150125.07376110 -155400.431878849 -494583.108685339
 -1136967.04235174 122967.737367482 -532667.167273919
 -1068977.65987097 404478.669143462 -534072.279587386
 -955387.354591214 656173.679655046 -498217.357921332
 -815971.784614581 856959.326857599 -437447.356539757
 -670883.127183950 1003035.85048896 -367946.114550394
 -534850.212994511 1101830.45407179 -302414.171391874
 -417540.923978235 1164268.24578782 -248371.615875306
 -326752.221521877 1200344.41666120 -209656.142384978
 -272243.645008740 1217298.34685390 -188726.159866791
 -829139.504323893 -914441.478754821 -260526.189127272
 -884299.416824934 -864023.546256943 -251052.352778480
 -962667.205184619 -774795.317309752 -253995.077227627
 -1045562.16742900 -650886.926463951 -273304.580858862
 -1119658.83517777 -493755.210587937 -306788.715151918
 -1173678.06114857 -304531.275069551 -348267.055866602
 -1197130.00872311 -87209.0516961871 -388360.340966765
 -1181624.81277317 147968.076702617 -416434.485885417
 -1124246.68116311 383993.269375533 -424462.012301426
 -1029875.52981981 601862.849623407 -410690.801261131
 -909510.263937125 787488.321529807 -379740.245649761
 -776135.950824369 934890.574231718 -339325.847777022
 -641859.801773325 1044700.65817559 -296927.534246924
 -517722.177093713 1121064.45942721 -258316.968226005
 -415526.075959813 1169194.16632939 -227755.378724027
 -351101.599350750 1193497.94029561 -209379.474549059
 -911549.957998103 -834581.823959535 -253178.364219745
 -964073.733992290 -778360.526764962 -237204.883422091
 -1035009.21840678 -683353.267377685 -230940.816436113
 -1106126.55462654 -557509.812643494 -239199.257681111
 -1165823.82656882 -405798.126499949 -260253.946852905
 -1205810.22256412 -232123.653936136 -289291.803136827
 -1219665.45067028 -41137.2053589195 -319802.047672411
 -1202879.60923195 160089.279644478 -344965.939124216
 -1153896.78055386 361732.665521275 -359473.405749669
 -1074908.09896136 552959.503187961 -361050.962525175
 -971388.967414410 724565.104394947 -350654.123599965
 -850857.696157574 870512.320587697 -331359.188062445
 -722112.258263619 987854.813549851 -306995.414836701
 -595608.877885181 1075945.27310197 -281320.572999607
 -485112.682914129 1135630.19288970 -257990.660280788
 -411379.920940970 1167846.69797309 -241764.516831801
 -965626.312742128 -774271.588676533 -244169.535420193
 -1014062.46928864 -716151.917993793 -224395.119494590
 -1077512.02064545 -620300.395826654 -213880.095429234
 -1139197.23933704 -496389.334770199 -217661.914749023
 -1188865.28080676 -351159.737221717 -234170.053520052
 -1220013.32328104 -189581.977839953 -259182.552680552
 -1228292.59107461 -16107.8523130960 -287380.024921782
 -1210931.85610285 164142.098437820 -313449.903995325
 -1166877.12028688 344916.758368166 -333136.078602635
 -1097027.07201284 519363.826762505 -344009.083659849
 -1004153.89441336 681016.819576032 -345601.618497346
 -892726.090656658 824440.965580384 -338949.335819853
 -769159.837061870 945352.082298569 -325963.213359529
 -642772.527396777 1040623.75673808 -309022.824165538
 -527519.591733876 1108413.60176641 -291018.553833080
 -445716.007294138 1147376.53833004 -276430.372879880
 462499.188025936 -1140560.26723123 -277067.155772256
 547234.757242484 -1099286.28858980 -289228.641567822
 665034.017348744 -1027224.64581909 -306738.836324638
 791826.309034169 -926937.768723560 -324571.872093171
 913367.182906045 -801428.279408832 -339149.720732642
 1020741.38161663 -654765.463584803 -347733.591231709
 1108317.50814097 -491823.336253559 -348269.346890549
 1172579.32286398 -318173.414473459 -339665.778130646
 1211641.02156095 -139939.317639817 -322323.522517676
 1225183.65765049 36744.4283681774 -298536.903797545
 1214385.07010483 206492.770638137 -272358.345015589
 1181700.22702975 364971.481448443 -248857.031417881
 1130864.83919886 508312.062522552 -233051.482459924
 1067691.46384820 631896.346431271 -228673.077364714
 1002067.00741319 729068.228170534 -236369.757467401
 951648.710396157 789528.938164367 -250116.410339928
 426757.457290925 -1160888.25501975 -248527.589862227
 502192.760016432 -1126938.75647028 -263364.579758274
 614753.338078268 -1063678.66111422 -286732.401606183
 741795.136490402 -971085.180263840 -313501.162789046
 868969.637541519 -849267.108530361 -339391.482389282
 985917.709270066 -699805.967720085 -360260.057472342
 1084421.54654145 -526420.205166869 -372103.625227799
 1157902.61673936 -335519.627506147 -371803.093888734
 1201911.08115261 -136082.746783152 -358386.202230879
 1214966.72684931 61823.1755848246 -334040.683942284
 1198756.12872158 249333.312707924 -303917.873685470
 1157391.99770476 420178.380549855 -274669.479714145
 1096610.80626965 570240.513978653 -252626.061024868
 1023983.39371683 695934.782792367 -242244.129775841
 950725.926928069 792415.015208084 -244434.217036998
 896064.466868387 851073.421499494 -253558.540286010
 365296.214933435 -1187531.83662439 -218806.405934020
 430674.270177126 -1161907.18345530 -236729.383392357
 534543.430372862 -1110788.36101403 -268257.281354926
 659391.266095145 -1030236.67679958 -308812.206516117
 792535.760416171 -915697.277129909 -353461.449153064
 922595.182396390 -763956.271310208 -395901.977595124
 1037731.87613831 -575495.942302648 -428329.784813773
 1125962.75116558 -357142.754350176 -442951.878787934
 1177718.18312992 -122967.271812997 -435210.710009506
 1189184.11383461 108989.686976806 -406831.442313686
 1163410.87321189 322945.123304038 -365692.518853534
 1108179.52543153 509492.948237640 -322342.218813199
 1033138.68284296 665039.596643242 -286175.169833186
 948824.800960635 788653.998084897 -263259.946261622
 868222.493096757 878974.245288854 -255232.069925971
 811035.747906584 931348.678761880 -257604.512974953
 286089.459647385 -1212559.17783176 -198500.610209611
 341257.547657110 -1194467.34443315 -219864.686043076
 433522.308424498 -1155726.57080407 -260583.830186586
 551658.888587527 -1089163.99158006 -317716.384542425
 686742.575956874 -985104.365659469 -386656.765162238
 828258.771328802 -833532.597063483 -459086.318973308
 961348.076216837 -628643.870900047 -521695.496293523
 1067081.27249222 -375881.314836238 -558211.631885544
 1128008.00554214 -96557.1680936851 -556618.436311199
 1136665.22452913 177978.119321965 -517557.134341439
 1098857.54166339 421034.596524952 -454743.227082615
 1028428.87712296 620081.118621852 -386500.817524668
 940321.616367672 774622.843623558 -327573.104584602
 847911.021609075 889187.688195387 -286254.406978394
 764590.284320647 967918.889278288 -264734.115330290
 708115.651785386 1011394.12116313 -259236.545055219
 194921.853438069 -1231853.53809584 -189978.321531644
 238952.950099220 -1219945.82395231 -214902.548098331
 316138.459812434 -1192177.22934656 -265177.976034862
 421159.181277981 -1139423.85149568 -340422.768902094
 549993.705875597 -1047561.79032270 -437802.067002982
 695311.875771624 -898720.507617854 -548080.537436795
 841567.601771205 -677586.407812082 -651298.750587114
 963300.070754399 -385303.303590426 -717735.166231826
 1033346.99367688 -52595.0207663565 -721787.493219781
 1039483.85451706 269073.796677256 -662285.466441011
 991601.399937913 538305.849667759 -564360.617667104
 911004.034057603 741777.155793226 -459769.216012816
 817474.296227608 886498.921796571 -370681.625629929
 725431.820622340 985372.243938297 -307147.595503394
 646582.681154692 1048901.76033880 -270712.697352631
 594973.415392540 1082324.52454755 -257156.935465524
 95239.9338758626 -1243255.70261850 -191817.735939213
 126611.663693627 -1235764.96174638 -220008.810859151
 184542.932663051 -1216338.27288461 -279310.835520512
 268429.211180066 -1175045.98840531 -372507.871912527
 378932.828963447 -1094545.00789259 -499930.562928618
 513490.996451789 -949324.994698624 -653190.999572376
 659475.763021648 -712439.220572106 -805649.741448837
 788821.038427179 -377819.007630910 -909155.431005291
 866335.502994333 12314.4375998449 -916984.504665760
 874800.222311311 379612.153749358 -825934.994227032
 827311.364290464 666467.633448162 -680386.824534993
 750373.086893353 863815.678051154 -531330.533414107
 665468.671452098 990770.266224419 -408748.281709326
 585561.704073240 1069870.32964955 -322559.140898784
 519368.354792003 1117077.71728850 -271925.203865158
 476863.812026240 1140666.72360459 -251057.287008220
 -11064.5291880809 -1245397.34674471 -201028.495079744
 5954.69236656607 -1240108.37875789 -231614.294663041
 40323.8206977670 -1225189.95746035 -298048.634523954
 94529.3614436765 -1190609.55619528 -406278.864132121
 172384.234661124 -1117055.12071588 -560375.734522543
 276026.299924660 -972878.516012992 -754232.262469072
 399334.530127754 -720097.786409537 -955793.148110346
 519659.042003668 -344941.666126258 -1096594.34521286
 601795.876124418 97422.1696880555 -1104490.86698436
 624691.195963840 499610.856718502 -975550.784148742
 598427.319906674 791394.904250578 -779184.367935142
 546869.286302161 973543.885580394 -587107.926592162
 488392.138472367 1078882.47856811 -434781.723898421
 433086.688444842 1138085.61463650 -329767.319436429
 387100.633714036 1170461.56958104 -267810.090233779
 357286.255862014 1185629.42875516 -241202.860598239
 -122759.139581271 -1237165.61736324 -214244.859407291
 -121416.919451376 -1231440.38135306 -245686.690243738
 -113926.301753455 -1216100.40731472 -315705.603397704
 -96194.7215712449 -1181199.04273074 -432509.916548464
 -63268.5397652388 -1106402.45348921 -602843.374109723
 -9771.57809714538 -956547.518283277 -822478.444973818
 66791.3092550197 -687249.108940989 -1055830.01197483
 158457.401534324 -281552.325158595 -1219495.37556144
 242429.257013205 193270.180538544 -1222875.35079319
 295835.316415432 609672.030857046 -1064110.38490891
 315110.780148541 893890.898303078 -832594.552638946
 310943.573533948 1057707.25729327 -613285.319297663
 294640.229455490 1143795.63613193 -443247.232220270
 273739.568634832 1187222.32376032 -327290.747574248
 253367.380304588 1208500.18843946 -258614.957143489
 238647.823456068 1217547.29033250 -228419.007708690
 -238647.700878646 -1217547.23979862 -228419.405136788
 -253367.222006838 -1208500.13106785 -258615.380324700
 -273739.355457961 -1187222.24127991 -327291.225062193
 -294639.939391788 -1143795.49454151 -443247.790407002
 -310943.179688291 -1057706.99200080 -613285.976520661
 -315110.247555503 -893890.411768889 -832595.276561253
 -295834.621123173 -609671.233344978 -1064111.03513472
 -242428.414022502 -193269.108328019 -1222875.68736956
 -158456.511070623 281553.404891934 -1219495.24198007
 -66790.4955091009 687249.929407074 -1055829.52940263
 9772.24897384204 956548.026458111 -822477.845992243
 63269.0575780360 1106402.73415749 -602842.804652228
 96195.1114565560 1181199.19156327 -432509.423366822
 113926.596865016 1216100.48946474 -315705.180460093
 121417.146175141 1231440.43452408 -245686.311691917
 122759.325727850 1237165.66043415 -214244.504032946
 -357286.193167098 -1185629.35827702 -241203.299900160
 -387100.548555346 -1170461.49142952 -267810.554884760
 -433086.566436438 -1138085.51233109 -329767.832744988
 -488391.961543925 -1078882.31953588 -434782.317270515
 -546869.038473602 -973543.609200574 -587108.615728497
 -598426.964233165 -791394.423607898 -779185.129272855
 -624690.688400801 -499610.097001640 -975551.498239995
 -601795.190634506 -97421.1680821658 -1104491.32882863
 -519658.232803518 344942.690709454 -1096594.40638944
 -399333.714961786 720098.599926084 -955792.875783381
 -276025.581404618 972879.051552823 -754231.834636325
 -172383.647462850 1117055.43466501 -560375.289330034
 -94528.9022039036 1190609.73189032 -406278.456105106
 -40323.4623930371 1225190.05746570 -298048.271907052
 -5954.40849765701 1240108.44173733 -231613.964756472
 11064.7686022097 1245397.39491966 -201028.183452093
 -476863.807968232 -1140666.61989486 -251057.765915800
 -519368.336431845 -1117077.60486791 -271925.700759483
 -585561.662868806 -1069870.19021123 -322559.678190956
 -665468.596484976 -990770.069756239 -408748.879981936
 -750372.965762796 -863815.369861852 -531331.205522254
 -827311.159464551 -666467.151332264 -680387.545843861
 -874799.886214441 -379611.448523438 -825935.674340376
 -866334.998839452 -12313.5416966471 -916984.993004621
 -788820.381826359 377819.932855526 -909155.616201823
 -659475.041002960 712439.995534062 -805649.647164649
 -513490.305928771 949325.544977955 -653190.742653660
 -378932.227141327 1094545.36115293 -499930.245665602
 -268428.715969555 1175046.20293474 -372507.552044984
 -184542.530316400 1216338.40332591 -279310.533310051
 -126611.336259313 1235765.04595217 -220008.526317522
 -95239.6491012021 1243255.76686405 -191817.460929150
 -594973.464105192 -1082324.37331451 -257157.459271490
 -646582.720713085 -1048901.59883442 -270713.228632840
 -725431.843487567 -985372.055422139 -307148.146285036
 -817474.294777257 -886498.678855992 -370682.209829338
 -911003.995225012 -741776.816461966 -459769.840422978
 -991601.293189979 -538305.371755149 -564361.261075267
 -1039483.63856655 -269073.153456594 -662286.066711608
 -1033346.63383479 52595.8009630443 -721787.951535847
 -963299.566189230 385304.112161992 -717735.409360339
 -841567.006697167 677587.118810120 -651298.779808718
 -695311.261204734 898721.058449721 -548080.413862645
 -549993.131553796 1047562.17691519 -437801.863471729
 -421158.678225257 1139424.10910458 -340422.529022015
 -316138.031522861 1192177.39830620 -265177.727027879
 -238952.584806655 1219945.93843315 -214902.304393503
 -194921.531599721 1231853.62575936 -189978.083318320
 -708115.744144810 -1011393.91072024 -259237.113799749
 -764590.367650489 -967918.668791582 -264734.680802831
 -847911.086667209 -889187.444619401 -286254.970886107
 -940321.655735750 -774622.555560781 -327573.672766626
 -1028428.88059597 -620080.754928337 -386501.391773131
 -1098857.48568482 -421034.131969081 -454743.792470487
 -1136665.07872213 -177977.544394647 -517557.652270566
 -1128007.74642761 96557.8390332885 -556618.845027263
 -1067080.89282841 375882.010724402 -558211.889064767
 -961347.602710976 628644.513035713 -521695.595065651
 -828258.248320686 833533.133390145 -459086.288782958
 -686742.051338938 985104.778351014 -386656.645503140
 -551658.397456273 1089164.29077276 -317716.211642412
 -433521.863511699 1155726.78265474 -260583.630780647
 -341257.152645922 1194467.49594312 -219864.476035405
 -286089.101193639 1212559.29723004 -198500.397476056
 -811035.871909949 -931348.400578350 -257605.128315354
 -868222.604741396 -878973.961034172 -255232.669066708
 -948824.888551354 -788653.699843387 -263260.524020983
 -1033138.73961330 -665039.269166680 -286175.725901827
 -1108179.54156354 -509492.572588658 -322342.757101775
 -1163410.83647637 -322944.680334242 -365693.026912084
 -1189184.00575773 -108989.173848460 -406831.895692541
 -1177717.98732772 122967.849384371 -435211.076675990
 -1125962.46050915 357143.353815564 -442952.134285983
 -1037731.50034311 575496.517574631 -428329.922342660
 -922594.744360404 763956.785917036 -395902.005360957
 -792535.292982333 915697.704115081 -353461.391066594
 -659390.795855426 1030237.01398171 -308812.085712591
 -534542.978892274 1110788.61654498 -268257.122906406
 -430673.850041110 1161907.37612081 -236729.202097640
 -365295.821790303 1187531.99231481 -218806.217302686
 -896064.607090754 -851073.078017343 -253559.197648855
 -950726.050099038 -792414.672672835 -244434.848405129
 -1023983.48744491 -695934.438627149 -242244.722319876
 -1096610.86337257 -570240.159199939 -252626.613973751
 -1157392.01269218 -420178.000461991 -274669.998003155
 -1198756.09561192 -249332.894438241 -303918.347427848
 -1214966.63643208 -61822.7099095719 -334041.098991276
 -1201910.92182687 136083.254265642 -358386.543861114
 -1157902.38142511 335520.156399493 -371803.349445211
 -1084421.24009115 526420.724134984 -372103.784123914
 -985917.338766323 699806.454589720 -360260.125677894
 -868969.218663538 849267.543608297 -339391.466168143
 -741794.689543604 971085.547745200 -313501.082046404
 -614752.884351469 1063678.95890866 -286732.269679396
 -502192.314129868 1126938.99287930 -263364.418394051
 -426757.028126031 1160888.44969307 -248527.417467820
 -951648.856309750 -789528.543957527 -250117.099534611
 -1002067.12993054 -729067.847874145 -236370.411066815
 -1067691.55082811 -631895.980918650 -228673.681275466
 -1130864.88885598 -508311.696538153 -233052.039755505
 -1181700.23544217 -364971.103596292 -248857.545625172
 -1214385.03515586 -206492.367720009 -272358.806323255
 -1225183.57313281 -36743.9934471676 -298537.304184955
 -1211640.87904857 139939.783449730 -322323.855997965
 -1172579.11645163 318173.897252706 -339666.038466457
 -1108317.23970447 491823.817450301 -348269.521608533
 -1020741.05046502 654765.930994673 -347733.683187586
 -913366.795213581 801428.716584934 -339149.731760548
 -791825.877345126 926938.157674753 -324571.814444988
 -665033.560486228 1027224.97391443 -306738.728093565
 -547234.291324732 1099286.55961313 -289228.493014104
 -462498.725504066 1140560.49439599 -277066.992709789
 491405.365511753 -1128202.47168288 -277901.746223093
 577527.133938467 -1083778.34146235 -288853.504498210
 696271.339682003 -1006482.33690369 -306184.516194515
 821890.048458809 -900179.751934066 -325150.108982381
 939663.948307338 -769264.788134969 -341778.847950075
 1041129.23574443 -618892.865115911 -352946.124650468
 1121598.75273142 -454513.291815793 -356347.213196699
 1178637.93859710 -281699.474535631 -350724.174622841
 1211281.04772132 -106052.749557521 -336304.131198799
 1219725.72138272 67157.4792053268 -315132.461836497
 1205154.46402471 233477.282782129 -290930.416397001
 1169590.05710151 389328.718819665 -268387.179184235
 1116113.84888750 531304.791244375 -252100.230149147
 1049980.02073530 654907.683343810 -245331.027945702
 981090.823853653 753182.958045136 -248446.489167172
 928200.524505471 814921.014295703 -256704.027405072
 453737.920051972 -1149279.08791700 -254615.217342814
 530421.662193503 -1112519.24249139 -269264.231343910
 644129.699860991 -1044323.78604821 -293315.854617291
 770520.305233184 -945674.328628123 -321788.679595886
 894453.040183320 -817938.024354292 -349972.253387561
 1005683.50900943 -663932.621945454 -373287.535476442
 1096802.92405338 -488302.066423954 -387471.119740568
 1162463.51907136 -297779.617146397 -389301.036935848
 1199453.46629649 -100901.994798541 -377729.533600375
 1207060.52716536 93296.6184383312 -354753.513958919