# OOMMF OVF 2.0
#
# Segment count: 1
#
# Begin: Segment
# Begin: Header
#
# Title: Oxs_MinDriver::Magnetization
# Desc: Oxs vector field output
# Desc:  MIF source file: C:/Users/grl31/Documents/GitHub/phd-work/Skyrmions/stdprob3/drive-9/stdprob3.mif
# Desc:  Iteration: 1726, State id: 3946
# Desc:  Stage: 0, Stage iteration: 1726
# Desc:  Stage simulation time: -1 s
# Desc:  Total simulation time: -2 s
# meshunit: m
# meshtype: rectangular
# xbase: 3.1249999999999999e-09
# ybase: 3.1249999999999999e-09
# zbase: 3.1249999999999999e-09
# xnodes: 16
# ynodes: 16
# znodes: 16
# xstepsize: 6.2499999999999997e-09
# ystepsize: 6.2499999999999997e-09
# zstepsize: 6.2499999999999997e-09
# xmin: 0
# ymin: 0
# zmin: 0
# xmax: 9.9999999999999995e-08
# ymax: 9.9999999999999995e-08
# zmax: 9.9999999999999995e-08
# valuedim: 3
# valuelabels: Magnetization_x Magnetization_y Magnetization_z
# valueunits: A/m A/m A/m
#
# End: Header
#
# Begin: Data Text
 -14769.3130862260 -1261393.34199454 -14769.3967975363
 -13746.0905396703 -1261400.89165583 -15108.4891270772
 -12182.1810322828 -1261411.81836378 -15532.2205894539
 -10284.0834915231 -1261423.55353792 -15946.3828328410
 -8170.35373883424 -1261434.40838791 -16306.7340008555
 -5918.24810128005 -1261443.28916976 -16590.1617512047
 -3581.26265729392 -1261449.52084291 -16784.2736490034
 -1198.55576793956 -1261452.72185157 -16882.6809570653
 1198.55546860114 -1261452.72185168 -16882.6809699976
 3581.26205666853 -1261449.52084556 -16784.2735782997
 5918.24767220210 -1261443.28917423 -16590.1615648638
 8170.35352498688 -1261434.40839086 -16306.7338798778
 10284.0833673793 -1261423.55354057 -15946.3827034190
 12182.1808919042 -1261411.81836881 -15532.2202909765
 13746.0902112699 -1261400.89166520 -15108.4886438091
 14769.3127970236 -1261393.34200218 -14769.3964344872
 -13725.7583525671 -1261416.91590884 -13725.8418917622
 -12902.5177900260 -1261422.58257285 -14000.8617190215
 -11514.7058706306 -1261431.81821912 -14373.9504686165
 -9763.14682706586 -1261442.22827953 -14751.8336541996
 -7777.62815627133 -1261452.07601675 -15086.3956012299
 -5643.25666143127 -1261460.22566230 -15351.9915723521
 -3418.19797526877 -1261465.97904671 -15534.8173239130
 -1144.49735477289 -1261468.94322899 -15627.7417914265
 1144.49706491525 -1261468.94322892 -15627.7418183569
 3418.19743423224 -1261465.97904863 -15534.8172864963
 5643.25622177378 -1261460.22566564 -15351.9914587902
 7777.62792823540 -1261452.07601880 -15086.3955480637
 9763.14674976995 -1261442.22828291 -14751.8334164534
 11514.7056945490 -1261431.81822387 -14373.9501924491
 12902.5174956346 -1261422.58258077 -14000.8612769755
 13725.7579995737 -1261416.91591583 -13725.8416016745
 -12142.3753427807 -1261449.38635529 -12142.4587236545
 -11493.1796615741 -1261453.43079821 -12352.3142625982
 -10332.5715380498 -1261460.45465827 -12656.6274223777
 -8811.19573988203 -1261468.73863589 -12977.4879299008
 -7047.66072637770 -1261476.79771330 -13268.3920747612
 -5127.28057053910 -1261483.57956064 -13502.6075919194
 -3110.67305034263 -1261488.41374902 -13665.1604123726
 -1042.31891286826 -1261490.91682714 -13748.1363412493
 1042.31864509292 -1261490.91682656 -13748.1364148341
 3110.67255115677 -1261488.41375003 -13665.1604334009
 5127.28010105910 -1261483.57956283 -13502.6075653645
 7047.66047923605 -1261476.79771546 -13268.3920005167
 8811.19563279198 -1261468.73863898 -12977.4877017760
 10332.5713117046 -1261460.45466328 -12656.6271082978
 11493.1793688139 -1261453.43080346 -12352.3139985347
 12142.3748937755 -1261449.38636227 -12142.4584468819
 -10232.0083701873 -1261483.27029142 -10232.0916015435
 -9726.52019334106 -1261485.99768970 -10387.6540517166
 -8794.17851368347 -1261490.87759617 -10623.5156542737
 -7538.45994780995 -1261496.81637220 -10880.4790048743
 -6054.27934301188 -1261502.73510271 -11118.7206536837
 -4417.30175052942 -1261507.79872112 -11313.3606846038
 -2684.80107460870 -1261511.44573390 -11449.6744278268
 -900.402214822287 -1261513.34477312 -11519.5986967755
 900.401876430954 -1261513.34477239 -11519.5988028715
 2684.80053974896 -1261511.44573473 -11449.6744619279
 4417.30121229631 -1261507.79872262 -11313.3607281762
 6054.27902261052 -1261502.73510494 -11118.7205745262
 7538.45973140810 -1261496.81637500 -10880.4788297934
 8794.17820871186 -1261490.87760028 -10623.5154189110
 9726.51980910925 -1261485.99769471 -10387.6538036194
 10232.0077922005 -1261483.27029840 -10232.0913180509
 -8115.72749124230 -1261514.05045875 -8115.81058159712
 -7735.27286688236 -1261515.71958941 -8227.13202988729
 -7021.67891667757 -1261518.74833049 -8400.86631311113
 -6043.47746255487 -1261522.50805059 -8594.70656097503
 -4870.32843608737 -1261526.32279883 -8777.68224136177
 -3562.62059363817 -1261529.63115990 -8929.07380591030
 -2168.96751478771 -1261532.03591435 -9035.97591092339
 -728.005102299580 -1261533.29462190 -9091.06638102563
 728.004571035116 -1261533.29462217 -9091.06638532937
 2168.96683873011 -1261532.03591576 -9035.97587639608
 3562.61993160956 -1261529.63116143 -8929.07385399260
 4870.32794409907 -1261526.32280047 -8777.68227873048
 6043.47705880541 -1261522.50805328 -8594.70645017307
 7021.67843067683 -1261518.74833477 -8400.86607747667
 7735.27231403356 -1261515.71959447 -8227.13177390487
 8115.72673398674 -1261514.05046550 -8115.81028951308
 -5870.86302318870 -1261538.93950195 -5870.94597344706
 -5604.76523705702 -1261539.80062648 -5945.49921296293
 -5101.04761877767 -1261541.37385959 -6064.01456125488
 -4402.94918343049 -1261543.35033525 -6198.40159736407
 -3557.34686794692 -1261545.38020834 -6326.91687988302
 -2607.38651385003 -1261547.15825498 -6434.27954869778
 -1589.54017723819 -1261548.45984057 -6510.58790558595
 -533.879450202137 -1261549.14395292 -6550.05979694247
 533.878611230058 -1261549.14395323 -6550.05980593339
 1589.53927405160 -1261548.45984195 -6510.58785825195
 2607.38563391361 -1261547.15825661 -6434.27958514883
 3557.34614180612 -1261545.38021001 -6326.91695602941
 4402.94849634532 -1261543.35033820 -6198.40148499323
 5101.04685511372 -1261541.37386367 -6064.01435484190
 5604.76443380554 -1261539.80063100 -5945.49901210279
 5870.86200673242 -1261538.93950820 -5870.94564668984
 -3549.26212589174 -1261556.27532354 -3549.34488467830
 -3391.58450497630 -1261556.58790162 -3592.15750305712
 -3091.63204528434 -1261557.16083298 -3660.96725969876
 -2673.30144559542 -1261557.88550256 -3739.77334206088
 -2163.47871184928 -1261558.63526334 -3815.76614953446
 -1587.86044585869 -1261559.29621739 -3879.65792792940
 -968.893680947934 -1261559.78233746 -3925.27102916639
 -325.573127614635 -1261560.03856412 -3948.92633322386
 325.571935221654 -1261560.03856407 -3948.92644767768
 968.892471760283 -1261559.78233829 -3925.27106193721
 1587.85924672452 -1261559.29621865 -3879.65801109295
 2163.47763481474 -1261558.63526518 -3815.76615357253
 2673.30035367757 -1261557.88550526 -3739.77320967718
 3091.63089789794 -1261557.16083637 -3660.96706240450
 3391.58340629388 -1261556.58790508 -3592.15732472131
 3549.26081357434 -1261556.27532804 -3549.34459616782
 -1187.27316061711 -1261565.14357679 -1187.35566456486
 -1135.01884165139 -1261565.17845802 -1201.31318483483
 -1035.40014319943 -1261565.24247763 -1223.86185830880
 -896.065841512938 -1261565.32370015 -1249.80890311121
 -725.767732436770 -1261565.40802724 -1274.93105852120
 -533.023024550337 -1261565.48259674 -1296.11953940304
 -325.394364483707 -1261565.53756916 -1311.28001862635
 -109.366830406958 -1261565.56658554 -1319.15259205275
 109.365200547782 -1261565.56658552 -1319.15274775773
 325.392782703899 -1261565.53756952 -1311.28007119110
 533.021417470336 -1261565.48259728 -1296.11967844126
 725.766223361341 -1261565.40802816 -1274.93101520448
 896.064349108599 -1261565.32370131 -1249.80880038977
 1035.39862726029 -1261565.24247912 -1223.86160886196
 1135.01743491725 -1261565.17845947 -1201.31299563674
 1187.27153548117 -1261565.14357842 -1187.35555882185
 1187.26925187992 -1261565.14373924 1187.18695520051
 1135.01522261702 -1261565.17862199 1201.14440064050
 1035.39664789088 -1261565.24264418 1223.69312550564
 896.062549301735 -1261565.32386931 1249.64049969388
 725.764750115960 -1261565.40819888 1274.76290577984
 533.020342368998 -1261565.48277021 1295.95178711705
 325.392066486929 -1261565.53774385 1311.11251572529
 109.364833149461 -1261565.56676055 1318.98537108675
 -109.366870263271 -1261565.56676046 1318.98529501508
 -325.394072602739 -1261565.53774342 1311.11243002759
 -533.022337363727 -1261565.48276945 1295.95170777683
 -725.766639883457 -1261565.40819774 1274.76295880426
 -896.064425641273 -1261565.32386792 1249.64055855685
 -1035.39845916832 -1261565.24264250 1223.69332702418
 -1135.01695826001 -1261565.17862030 1201.14453446888
 -1187.27117510929 -1261565.14373743 1187.18695544239
 3549.25820078500 -1261556.27580949 3549.17608331845
 3391.58089462075 -1261556.58839174 3591.98877671218
 3091.62859130146 -1261557.16133074 3660.79864618820
 2673.29822681758 -1261557.88600854 3739.60495238796
 2163.47580515719 -1261558.63577680 3815.59803554058
 1587.85781573744 -1261559.29673704 3879.49002525621
 968.891380379874 -1261559.78286088 3925.10336799870
 325.571178786480 -1261560.03908886 3948.75885114410
 -325.573563639696 -1261560.03908830 3948.75883559377
 -968.893792069726 -1261559.78285930 3925.10328280037
 -1587.86012976496 -1261559.29673407 3879.49004297530
 -2163.47801173939 -1261558.63577304 3815.59802718045
 -2673.30040997502 -1261557.88600380 3739.60499242092
 -3091.63068875363 -1261557.16132545 3660.79869924366
 -3391.58296707118 -1261556.58838600 3591.98883802479
 -3549.26044353823 -1261556.27580320 3549.17607658970
 5870.85912166085 -1261538.94030561 5870.77718232009
 5604.76162907696 -1261539.80143759 5945.33050734522
 5101.04422052506 -1261541.37468372 6063.84596836799
 4402.94603323512 -1261543.35117343 6198.23323894359
 3557.34398413019 -1261545.38105935 6326.74881387764
 2607.38393998181 -1261547.15911756 6434.11146562217
 1589.53790223198 -1261548.46071062 6510.41986896117
 533.877544816110 -1261549.14482539 6549.89191153113
 -533.880186488355 -1261549.14482448 6549.89187140166
 -1589.54058815995 -1261548.46070697 6510.41992048155
 -2607.38651314885 -1261547.15911216 6434.11148166226
 -3557.34655158063 -1261545.38105286 6326.74866490379
 -4402.94853863069 -1261543.35116478 6198.23322125356
 -5101.04664793884 -1261541.37467377 6063.84599667186
 -5604.76402983290 -1261539.80142679 5945.33053585494
 -5870.86161581725 -1261538.94029432 5870.77711417080
 8115.72361530974 -1261514.05156919 8115.64185014936
 7735.26925355941 -1261515.72071195 8226.96329964633
 7021.67556521709 -1261518.74947222 8400.69766482433
 6043.47433254588 -1261522.50921279 8594.53817330606
 4870.32558265712 -1261526.32398049 8777.51399517756
 3562.61801374686 -1261529.63235796 8928.90556703878
 2168.96526830306 -1261532.03712412 9035.80755053014
 728.003257767983 -1261533.29583585 9090.89807157813
 -728.006107203674 -1261533.29583457 9090.89802146541
 -2168.96815876909 -1261532.03711884 9035.80759349575
 -3562.62086840824 -1261529.63235063 8928.90546345639
 -4870.32843044534 -1261526.32397032 8777.51387774261
 -6043.47711162320 -1261522.50920026 8594.53805891612
 -7021.67825644638 -1261518.74945688 8400.69771945596
 -7735.27194340617 -1261515.72069530 8226.96332452443
 -8115.72632091410 -1261514.05155259 8115.64172509001
 10232.0044911004 -1261483.27169158 10231.9228571323
 9726.51659318701 -1261485.99910707 10387.4852948311
 8794.17513928299 -1261490.87904028 10623.3469659527
 7538.45686674021 -1261496.81784476 10880.3104073037
 6054.27650349186 -1261502.73660204 11118.5520885921
 4417.29915517704 -1261507.80024092 11313.1922303487
 2684.79882784136 -1261511.44726885 11449.5058347514
 900.400396417592 -1261513.34631477 11519.4300115591
 -900.403422598183 -1261513.34631347 11519.4299177787
 -2684.80186845494 -1261511.44726382 11449.5056758313
 -4417.30224188891 -1261507.80023224 11313.1919932500
 -6054.27956438276 -1261502.73658768 11118.5520502386
 -7538.45985541100 -1261496.81782781 10880.3103021037
 -8794.17808798500 -1261490.87902014 10623.3469162545
 -9726.51949662760 -1261485.99908460 10387.4853048669
 -10232.0073976534 -1261483.27166879 10231.9227599436
 12142.3714525243 -1261449.38801775 12142.2899037979
 11493.1760466988 -1261453.43248441 12352.1454259265
 10332.5681502279 -1261460.45638042 12656.4585443195
 8811.19267406883 -1261468.74039473 12977.3190433479
 7047.65788976416 -1261476.79950443 13268.2232906961
 5127.27793580853 -1261483.58137748 13502.4388526655
 3110.67075230006 -1261488.41558467 13664.9914787591
 1042.31703978636 -1261490.91867146 13747.9672523349
 -1042.32021326626 -1261490.91867080 13747.9670721920
 -3110.67396115985 -1261488.41557954 13664.9912218085
 -5127.28118864148 -1261483.58136806 13502.4384977131
 -7047.66113245147 -1261476.79948792 13268.2231371921
 -8811.19586960497 -1261468.74037297 12977.3189889546
 -10332.5712993086 -1261460.45635527 12656.4584798360
 -11493.1791201289 -1261453.43245672 12352.1453937815
 -12142.3745618636 -1261449.38798826 12142.2898576782
 13725.7544612692 -1261416.91778953 13725.6729445842
 12902.5141401082 -1261422.58448724 14000.6926028784
 11514.7024800510 -1261431.82017616 14373.7814373002
 9763.14375314892 -1261442.23028138 14751.6645077042
 7777.62532602358 -1261452.07805521 15086.2266132091
 5643.25397146394 -1261460.22773179 15351.8225114909
 3418.19559139003 -1261465.98113731 15534.6480857412
 1144.49541579538 -1261468.94533118 15627.5722439431
 -1144.49870527284 -1261468.94532946 15627.5721415894
 -3418.19892574509 -1261465.98113296 15534.6477052570
 -5643.25736178777 -1261460.22772188 15351.8220793278
 -7777.62870272194 -1261452.07803763 15086.2263423626
 -9763.14712509365 -1261442.23025595 14751.6644504946
 -11514.7057839874 -1261431.82014730 14373.7813234883
 -12902.5173649375 -1261422.58445363 14000.6926592343
 -13725.7577040953 -1261416.91775462 13725.6729099855
 14769.3092149052 -1261393.34402022 14769.2276629540
 13746.0868471145 -1261400.89372377 15108.3198340267
 12182.1776672341 -1261411.82047969 15532.0513889124
 10284.0804214119 -1261423.55570253 15946.2135830613
 8170.35090495005 -1261434.41059401 16306.5647631397
 5918.24541716679 -1261443.29140897 16589.9924484329
 3581.26019402168 -1261449.52310492 16784.1041688244
 1198.55378365138 -1261452.72412624 16882.5111366237
 -1198.55715562716 -1261452.72412454 16882.5110238587
 -3581.26359275814 -1261449.52310085 16784.1037495029
 -5918.24884537135 -1261443.29139902 16589.9919823073
 -8170.35434943109 -1261434.41057519 16306.5644936844
 -10284.0838357657 -1261423.55567646 15946.2134429330
 -12182.1810470284 -1261411.82044883 15532.0512444361
 -13746.0901859423 -1261400.89368648 15108.3199101956
 -14769.3125428710 -1261393.34398118 14769.2276691955
 -15108.4052070691 -1261400.89174655 -13746.1744514409
 -14025.3278517292 -1261410.32535602 -14025.4120376099
 -12399.2675009950 -1261423.11904865 -14401.5212378578
 -10448.0222476116 -1261436.39418791 -14781.5144109692
 -8289.65659029522 -1261448.44185004 -15117.5747616750
 -5999.25772620027 -1261458.19031207 -15384.2100961327
 -3628.24256720438 -1261464.98708852 -15567.6949031048
 -1213.95035345208 -1261468.46659410 -15660.9396978915
 1213.95019968773 -1261468.46659394 -15660.9397225254
 3628.24215500930 -1261464.98709012 -15567.6948689766
 5999.25740913763 -1261458.19031485 -15384.2099916701
 8289.65648906380 -1261448.44185139 -15117.5747045877
 10448.0223014364 -1261436.39419038 -14781.5141616453
 12399.2674466900 -1261423.11905252 -14401.5209454220
 14025.3276903083 -1261410.32536297 -14025.4115744216
 15108.4049854503 -1261400.89175251 -13746.1741482203
 -14000.7779634519 -1261422.58264463 -12902.6016569605
 -13142.6356624988 -1261429.33649384 -13142.7196385313
 -11709.0350840985 -1261439.89709466 -13480.1867263389
 -9913.32112252010 -1261451.50734593 -13829.3744596026
 -7888.35659746651 -1261462.32521049 -14142.3768759330
 -5719.01079113908 -1261471.19483193 -14392.6524248320
 -3462.31195814056 -1261477.42162695 -14565.6458932435
 -1158.97946157516 -1261480.62012429 -14653.7618511547
 1158.97933615431 -1261480.62012471 -14653.7618252177
 3462.31154238705 -1261477.42162845 -14565.6458617437
 5719.01043530927 -1261471.19483459 -14392.6523335398
 7888.35649178088 -1261462.32521165 -14142.3768306787
 9913.32113692223 -1261451.50734761 -13829.3742962852
 11709.0350127531 -1261439.89709930 -13480.1863538408
 13142.6354732843 -1261429.33649887 -13142.7193453384
 14000.7776842209 -1261422.58265161 -12902.6012776888
 -12352.2307756507 -1261453.43085276 -11493.2634011738
 -11683.9475848967 -1261458.04515960 -11684.0314064841
 -10493.3071982503 -1261465.88329151 -11964.3936144520
 -8939.05560560897 -1261474.98254349 -12263.4669137938
 -7143.72862139062 -1261483.73990580 -12536.8262971745
 -5193.77723579938 -1261491.05705798 -12758.0782140823
 -3149.65761705907 -1261496.24948323 -12912.1305601944
 -1055.15647966250 -1261498.93141846 -12990.9042729925
 1055.15630038798 -1261498.93141740 -12990.9043907575
 3149.65722680160 -1261496.24948484 -12912.1304977442
 5193.77685163447 -1261491.05706026 -12758.0781449573
 7143.72845520101 -1261483.73990703 -12536.8262684838
 8939.05554044785 -1261474.98254608 -12263.4666939896
 10493.3070371382 -1261465.88329485 -11964.3934041208
 11683.9473479608 -1261458.04516460 -11684.0311031678
 12352.2304107957 -1261453.43085961 -11493.2630420520
 -10387.5707744542 -1261485.99773096 -9726.60377994750
 -9871.32427075886 -1261489.01825688 -9871.40787314005
 -8919.83201692183 -1261494.36256507 -10091.6169320987
 -7640.96114043861 -1261500.80357169 -10332.9192287582
 -6132.73484334190 -1261507.17569446 -10557.7532501314
 -4472.28960464107 -1261512.59873897 -10742.1025645191
 -2717.28343257767 -1261516.49115070 -10871.5152825567
 -911.136733233505 -1261518.51400351 -10937.9877122442
 911.136450163988 -1261518.51400262 -10937.9878383426
 2717.28298517319 -1261516.49115196 -10871.5152474891
 4472.28914699851 -1261512.59874045 -10742.1025804236
 6132.73456379038 -1261507.17569653 -10557.7531644280
 7640.96099184733 -1261500.80357366 -10332.9190975998
 8919.83173476015 -1261494.36256883 -10091.6167108071
 9871.32392690110 -1261489.01826158 -9871.40761625540
 10387.5702267845 -1261485.99773803 -9726.60344754721
 -8227.04892825324 -1261515.71962010 -7735.35624706306
 -7840.35174401048 -1261517.53352070 -7840.43514943069
 -7114.66665535067 -1261520.80723660 -8004.08311171908
 -6120.77673663539 -1261524.84635509 -8187.12647081694
 -4930.40480590386 -1261528.92375275 -8360.41641535094
 -3605.19334744247 -1261532.44632628 -8504.13816465401
 -2194.29252275482 -1261535.00002299 -8605.79550470751
 -736.402540786337 -1261536.33463396 -8658.23472559240
 736.402077359946 -1261536.33463391 -8658.23477296889
 2194.29192348383 -1261535.00002414 -8605.79548901559
 3605.19274400661 -1261532.44632755 -8504.13823105029
 4930.40434646229 -1261528.92375469 -8360.41639385491
 6120.77633650885 -1261524.84635794 -8187.12633208943
 7114.66617959130 -1261520.80724079 -8004.08287378835
 7840.35120447449 -1261517.53352561 -7840.43489874853
 8227.04817528042 -1261515.71962665 -7735.35597978216
 -5945.41630185390 -1261539.80064764 -5604.84842359860
 -5675.72493259525 -1261540.72556842 -5675.80811506928
 -5164.62964612591 -1261542.41138110 -5788.07449292924
 -4456.49162781524 -1261544.52077115 -5915.46393822942
 -3599.42740319112 -1261546.67916100 -6037.49444595036
 -2637.46082798816 -1261548.56426046 -6139.60354574982
 -1607.53047088010 -1261549.94135016 -6212.26562174887
 -539.861175482009 -1261550.66425479 -6249.87897139679
 539.860402748770 -1261550.66425517 -6249.87896127191
 1607.52961898485 -1261549.94135114 -6212.26564283078
 2637.45997758055 -1261548.56426213 -6139.60356942550
 3599.42667244706 -1261546.67916284 -6037.49449548117
 4456.49087466933 -1261544.52077459 -5915.46377202147
 5164.62887511342 -1261542.41138523 -5788.07428015917
 5675.72416361888 -1261540.72557273 -5675.80792565818
 5945.41530631024 -1261539.80065345 -5604.84817249079
 -3592.07475401960 -1261556.58791420 -3391.66746675711
 -3432.52703474802 -1261556.92137351 -3432.61004373522
 -3128.58791539085 -1261557.53209689 -3498.00889167859
 -2704.67046448298 -1261558.30231510 -3572.88909392823
 -2188.31009127730 -1261559.09689417 -3645.16960641576
 -1605.70744725493 -1261559.79569548 -3706.00962419048
 -979.610339801295 -1261560.30876608 -3749.48377301889
 -329.143175403070 -1261560.57891700 -3772.04272730631
 329.142010915333 -1261560.57891723 -3772.04275050280
 979.609188471989 -1261560.30876691 -3749.48379366299
 1605.70628023820 -1261559.79569675 -3706.00969731234
 2188.30901282887 -1261559.09689600 -3645.16962106085
 2704.66938781853 -1261558.30231772 -3572.88898408196
 3128.58678429915 -1261557.53210018 -3498.00871695118
 3432.52598634791 -1261556.92137695 -3432.60982642350
 3592.07349454546 -1261556.58791830 -3391.66727279626
 -1201.23058458678 -1261565.17846224 -1135.10157009975
 -1148.39553871542 -1261565.21555729 -1148.47835488472
 -1047.51544362742 -1261565.28363185 -1169.94240372984
 -906.388412159894 -1261565.36978896 -1194.62473014404
 -733.967476070247 -1261565.45901203 -1218.53947839550
 -538.932872722414 -1261565.53774369 -1238.72829485842
 -328.949876703210 -1261565.59569406 -1253.18475304206
 -110.552402874306 -1261565.62625336 -1260.69548191139
 110.550837990357 -1261565.62625351 -1260.69546256236
 328.948344347379 -1261565.59569448 -1253.18472675752
 538.931373477107 -1261565.53774421 -1238.72842102637
 733.966050484558 -1261565.45901288 -1218.53946137138
 906.386994318310 -1261565.36979000 -1194.62470403774
 1047.51398689223 -1261565.28363324 -1169.94221010682
 1148.39416924382 -1261565.21555871 -1148.47816252842
 1201.22902058562 -1261565.17846382 -1135.10146391649
 1201.22682832474 -1261565.17861773 1134.93271545315
 1148.39205497893 -1261565.21571423 1148.30943256557
 1047.51209317546 -1261565.28379119 1169.77357618600
 906.385314915784 -1261565.36995079 1194.45617397552
 733.964650586445 -1261565.45917626 1218.37114575326
 538.930355540777 -1261565.53790968 1238.56033147217
 328.947687133850 -1261565.59586130 1253.01695682791
 110.550491425150 -1261565.62642092 1260.52795852433
 -110.552415002261 -1261565.62642076 1260.52795217985
 -328.949586137557 -1261565.59586076 1253.01700466663
 -538.932228754320 -1261565.53790898 1238.56022091931
 -733.966488833764 -1261565.45917520 1218.37113034091
 -906.387122344065 -1261565.36994944 1194.45622637830
 -1047.51387449735 -1261565.28378957 1169.77372480875
 -1148.39376048138 -1261565.21571254 1148.30958590603
 -1201.22867249807 -1261565.17861596 1134.93273449171
 3592.07100298781 -1261556.58837891 3391.49858263846
 3432.52354015195 -1261556.92184260 3432.44113286952
 3128.58460854066 -1261557.53257304 3497.84012410048
 2704.66737578608 -1261558.30279921 3572.72049329752
 2188.30726728873 -1261559.09738536 3645.00130071915
 1605.70494772037 -1261559.79619252 3705.84150654015
 979.608144672662 -1261560.30926683 3749.31586088624
 329.141317724444 -1261560.57941882 3771.87505139725
 -329.143575734427 -1261560.57941846 3771.87497402252
 -979.610415437515 -1261560.30926500 3749.31588224556
 -1605.70714705013 -1261559.79618980 3705.84147661411
 -2188.30947910542 -1261559.09738172 3645.00123274477
 -2704.66952032663 -1261558.30279441 3572.72056228796
 -3128.58666951196 -1261557.53256773 3497.84019367158
 -3432.52559672296 -1261556.92183668 3432.44124951604
 -3592.07315826607 -1261556.58837287 3391.49854685668
 5945.41256174980 -1261539.80141562 5604.67953303196
 5675.72145789451 -1261540.72634383 5675.63923821969
 5164.62639797898 -1261542.41216877 5787.90571219683
 4456.48857514607 -1261544.52157253 5915.29533231217
 3599.42466227514 -1261546.67997472 6037.32604847643
 2637.45835760092 -1261548.56508452 6139.43527926812
 1607.52827530005 -1261549.94218119 6212.09742620079
 539.859361256348 -1261550.66508823 6249.71089562602
 -539.861914108480 -1261550.66508726 6249.71087052272
 -1607.53085868247 -1261549.94217782 6212.09744200479
 -2637.46083395884 -1261548.56507971 6139.43520443769
 -3599.42712674354 -1261546.67996778 6037.32602976939
 -4456.49101214812 -1261544.52156401 5915.29531376849
 -5164.62873517803 -1261542.41215891 5787.90577432328
 -5675.72380945015 -1261540.72633304 5675.63928471519
 -5945.41498204794 -1261539.80140461 5604.67944406935
 8227.04519244007 -1261515.72068015 7735.18734066121
 7840.34830381646 -1261517.53459182 7840.26624534530
 7114.66343139513 -1261520.80832582 8003.91430303517
 6120.77377779437 -1261524.84746401 8186.95781218232
 4930.40210116057 -1261528.92488054 8360.24783260546
 3605.19088674554 -1261532.44746890 8503.96970475982
 2194.29035265946 -1261535.00117635 8605.62698372781
 736.400740970418 -1261536.33579135 8658.06624077624
 -736.403539922789 -1261536.33578975 8658.06623612290
 -2194.29316305944 -1261535.00117169 8605.62695066413
 -3605.19363612954 -1261532.44746203 8503.96955912915
 -4930.40481830112 -1261528.92487001 8360.24781939128
 -6120.77646720945 -1261524.84745154 8186.95772351359
 -7114.66604051260 -1261520.80831119 8003.91429008399
 -7840.35089967595 -1261517.53457561 7840.26625830935
 -8227.04784411769 -1261515.72066336 7735.18725908489
 10387.5670512299 -1261485.99906467 9726.43477960019
 9871.32082427967 -1261489.01960569 9871.23894971260
 8919.82880868730 -1261494.36393891 10091.4480298779
 7640.95820465912 -1261500.80497217 10332.7504194695
 6132.73213516521 -1261507.17712041 10557.5844402580
 4472.28711449561 -1261512.60018497 10741.9337866480
 2717.28124674627 -1261516.49261064 10871.3464170790
 911.134951948599 -1261518.51546853 10937.8188925772
 -911.137905758593 -1261518.51546755 10937.8187593040
 -2717.28424897089 -1261516.49260520 10871.3462978676
 -4472.29011207972 -1261512.60017549 10741.9336519880
 -6132.73511809842 -1261507.17710685 10557.5843270905
 -7640.96116534050 -1261500.80495539 10332.7502795298
 -8919.83167961285 -1261494.36391910 10091.4479685422
 -9871.32365768490 -1261489.01958400 9871.23888847127
 -10387.5699256425 -1261485.99904104 9726.43477444064
 12352.2270757865 -1261453.43242953 11493.0943165875
 11683.9441274969 -1261458.04675775 11683.8623197956
 10493.3039696467 -1261465.88492166 11964.2245704260
 8939.05266586645 -1261474.98420856 12263.2977785428
 7143.72592460829 -1261483.74160059 12536.6572996678
 5193.77468913057 -1261491.05877866 12757.9091124380
 3149.65538198320 -1261496.25122045 12911.9613803565
 1055.15469345413 -1261498.93316314 12990.7349977721
 -1055.15779983971 -1261498.93316152 12990.7349025577
 -3149.65853681543 -1261496.25121501 12911.9611420892
 -5193.77787514998 -1261491.05876801 12757.9088682647
 -7143.72909955461 -1261483.74158486 12536.6570727466
 -8939.05581824337 -1261474.98418715 12263.2976829314
 -10493.3070828754 -1261465.88489681 11964.2244601489
 -11683.9471705738 -1261458.04672965 11683.8623107419
 -12352.2301422978 -1261453.43239941 11493.0943266020
 14000.7742671126 -1261422.58441669 12902.4324218775
 13142.6321797382 -1261429.33829346 13142.5503947110
 11709.0318805613 -1261439.89893414 13480.0173738084
 9913.31821947033 -1261451.50922548 13829.2050965856
 7888.35389354217 -1261462.32712524 14142.2075919316
 5719.00822219400 -1261471.19677511 14392.4831310009
 3462.30966251813 -1261477.42359054 14565.4763779182
 1158.97763557336 -1261480.62209736 14653.5921412649
 -1158.98087326783 -1261480.62209582 14653.5920177526
 -3462.31293399989 -1261477.42358446 14565.4761268264
 -5719.01151656211 -1261471.19676545 14392.4826685880
 -7888.35719660746 -1261462.32710743 14142.2073382346
 -9913.32149558218 -1261451.50920075 13829.2050038171
 -11709.0351272424 -1261439.89890484 13480.0172954395
 -13142.6353964055 -1261429.33825990 13142.5503983839
 -14000.7774740134 -1261422.58438064 12902.4324657530
 15108.4015256738 -1261400.89363560 13746.0051508618
 14025.3243685453 -1261410.32727968 14025.2425105086
 12399.2642944939 -1261423.12101499 14401.3517667908
 10448.0193821192 -1261436.39619928 14781.3447875167
 8289.65388041984 -1261448.44389883 15117.4052907845
 5999.25515665646 -1261458.19239175 15384.0405698229
 3628.24024711641 -1261464.98918905 15567.5252346290
 1213.94846971159 -1261468.46870591 15660.7697391314
 -1213.95178972053 -1261468.46870402 15660.7696346345
 -3628.24358716325 -1261464.98918441 15567.5248318693
 -5999.25848994675 -1261458.19238155 15384.0401063145
 -8289.65725377419 -1261448.44388015 15117.4049997758
 -10448.0226963747 -1261436.39617264 14781.3447181018
 -12399.2676151985 -1261423.12098345 14401.3516706606
 -14025.3277000410 -1261410.32724163 14025.2426012703
 -15108.4048186127 -1261400.89359614 13746.0051524883
 -15532.1365489711 -1261411.81858396 -12182.2653842620
 -14401.4368853864 -1261423.11918120 -12399.3519895858
 -12709.6987774113 -1261438.20929919 -12709.7834759050
 -10691.7614538709 -1261453.60629731 -13035.1952600614
 -8471.41682584473 -1261467.39694013 -13329.3838199282
 -6124.54394892045 -1261478.45317970 -13565.8779190755
 -3701.53203902447 -1261486.11575097 -13729.8706130489
 -1238.06172953131 -1261490.02537307 -13813.5443082589
 1238.06186261234 -1261490.02537205 -13813.5443891746
 3701.53192302401 -1261486.11575086 -13729.8706545311
 6124.54385236916 -1261478.45318024 -13565.8779129068
 8471.41695400466 -1261467.39694024 -13329.3837279349
 10691.7617208573 -1261453.60629773 -13035.1950011813
 12709.6989263653 -1261438.20930123 -12709.7831245073
 14401.4369794519 -1261423.11918318 -12399.3516785134
 15532.1364895158 -1261411.81858777 -12182.2650653388
 -14373.8665850024 -1261431.81840567 -11514.7901461924
 -13480.1024947276 -1261439.89721149 -11709.1194695455
 -11992.8251527924 -1261452.24768187 -11992.9096626101
 -10139.1762506766 -1261465.60417838 -12294.6125921045
 -8058.29100349549 -1261477.90037287 -12569.8741405271
 -5836.80618380746 -1261487.89771595 -12792.4402961392
 -3531.44604640125 -1261494.87780303 -12947.3195869136
 -1181.75818619653 -1261498.45217775 -13026.4929921271
 1181.75827103670 -1261498.45217635 -13026.4931203816