# OOMMF OVF 2.0
#
# Segment count: 1
#
# Begin: Segment
# Begin: Header
#
# Title: Oxs_MinDriver::Magnetization
# Desc: Oxs vector field output
# Desc:  MIF source file: C:/Users/grl31/Documents/GitHub/phd-work/Skyrmions/stdprob3/drive-142/stdprob3.mif
# Desc:  Iteration: 567, State id: 1217
# Desc:  Stage: 0, Stage iteration: 567
# Desc:  Stage simulation time: -1 s
# Desc:  Total simulation time: -2 s
# meshunit: m
# meshtype: rectangular
# xbase: 3.1249999999999999e-09
# ybase: 3.1249999999999999e-09
# zbase: 3.1249999999999999e-09
# xnodes: 16
# ynodes: 16
# znodes: 16
# xstepsize: 6.2499999999999997e-09
# ystepsize: 6.2499999999999997e-09
# zstepsize: 6.2499999999999997e-09
# xmin: 0
# ymin: 0
# zmin: 0
# xmax: 9.9999999999999995e-08
# ymax: 9.9999999999999995e-08
# zmax: 9.9999999999999995e-08
# valuedim: 3
# valuelabels: Magnetization_x Magnetization_y Magnetization_z
# valueunits: A/m A/m A/m
#
# End: Header
#
# Begin: Data Text
 501595.794479374 -1157477.37635306 -14043.2585387254
 607917.297139897 -1104617.47422360 -42499.7223161108
 743530.456868337 -1016461.36077324 -74284.5386546650
 877996.108150998 -900203.640967809 -101516.844803974
 997053.193697406 -763572.028326093 -119967.151398760
 1095095.38673645 -613323.879246652 -127080.069300189
 1170615.01938276 -454318.997509863 -121672.329706024
 1223373.77629797 -290036.148228955 -103851.177681922
 1253267.19630811 -123419.499845262 -75089.2311514683
 1260249.81896768 43034.2437328981 -38312.9035340906
 1244329.40303483 207818.259100985 2310.59433157315
 1205275.01605343 370284.026778430 41848.6094046258
 1142857.72595198 528966.913913170 74964.3457652231
 1059023.68871102 678796.410867004 96196.1031535435
 963228.029459046 808409.355658642 101071.795605783
 881746.880547852 897685.744469870 90731.3272175685
 447925.354565206 -1179240.50121434 17439.8380824771
 538707.517276164 -1140730.93569081 -8750.66323622148
 666959.256313032 -1070011.96927698 -42298.5453805534
 804790.236618467 -968556.272321368 -75900.2853056719
 936188.930705215 -839152.536925719 -104511.897481143
 1051649.96037658 -685737.155896217 -123880.364797082
 1145187.18109438 -512848.004242281 -130700.710483045
 1212507.65574033 -325921.922371364 -123083.370963717
 1250571.09032120 -131757.717750502 -101297.990034278
 1258160.66810628 62447.5668611489 -68421.2360486838
 1235920.27079846 251307.170690761 -29920.2457845623
 1185309.31334036 431892.669495950 7744.97664498649
 1108236.91625525 601577.502230300 38273.7139347688
 1009277.44811146 754822.972424318 56131.4880712920
 901114.525740072 881031.425224974 57668.6239236661
 813748.728766426 962961.462464198 45471.5203044011
 368649.783792345 -1205884.56275818 38590.0133496208
 442353.295578591 -1181378.12924171 14788.7984326769
 556722.281306587 -1131903.36979161 -20112.0329688201
 692699.102107591 -1052605.40571452 -61149.3640103086
 836449.651303870 -938699.809481782 -103653.651317520
 975800.246530083 -786936.369254045 -141754.931258298
 1098348.88095868 -597318.078978445 -168494.151653011
 1191216.28590166 -375748.671256976 -177104.847957997
 1243455.49048470 -135959.434258368 -163960.075440777
 1250361.72494871 103719.638888071 -131860.624187704
 1214742.49717648 328536.434820461 -89520.4304495560
 1143295.99166018 531219.533018687 -47217.7309083910
 1043656.44573296 708625.500611764 -13437.0414052539
 925792.688770639 856983.143384029 6100.84366404092
 806750.971966254 969857.261699071 8898.99320367550
 717507.194756926 1037656.35661538 -1463.54593371012
 278959.246950479 -1229569.77042845 43466.6436281430
 336290.733073490 -1215730.18975330 21402.7916461311
 432485.131158089 -1185021.59162325 -15161.4522004737
 558593.186095024 -1129321.88174460 -64460.6141763971
 707385.136384909 -1037199.49646392 -123987.516612132
 868867.942280462 -895185.244476845 -187779.945327502
 1026125.74043364 -691989.477860051 -244470.771810132
 1153767.36265252 -428001.127746281 -277822.494490131
 1224943.22468967 -126116.684094974 -274149.793358880
 1227371.88792036 173297.641954860 -234681.927200737
 1169985.96069785 437811.478853897 -176077.800056268
 1071203.18791526 656002.550150450 -117191.361948104
 948247.795070922 829097.134197338 -70522.9900660017
 816723.875763955 960601.533550132 -41907.4625477656
 694998.588074528 1052367.49974010 -32388.8713006540
 609792.785453808 1103754.90128001 -37779.7250890415
 186603.761062252 -1247206.03363744 34721.4189621873
 228116.713468262 -1240695.59320263 13661.6603293829
 303104.772410393 -1224347.60779050 -25492.4137474012
 411026.193873917 -1189727.44958625 -84590.1564573314
 553019.481238055 -1121802.66812310 -165159.492860815
 726534.129669092 -996988.838098766 -264028.116024416
 916197.460704345 -786122.986074798 -366254.412509539
 1083837.91840187 -473246.869209521 -439183.558818691
 1176731.56439255 -91132.5537250625 -445586.258689329
 1169291.58358282 279209.948184291 -382555.131080805
 1084323.54254864 577533.124339427 -286788.033719089
 959652.205042319 795382.268552942 -194895.159375348
 822361.031752438 948524.361655794 -124793.027527532
 689489.676092535 1053388.40368558 -80785.4470899009
 575714.062931392 1120884.44584153 -60998.4240165902
 500223.654562411 1156607.34075083 -59876.4198702567
 94062.9010901204 -1257942.54986569 16797.1067412010
 119712.054525196 -1255867.90578160 -3775.99629780840
 170580.205103356 -1249122.39731865 -46314.8039266644
 251764.450149696 -1230678.57839970 -116594.722126968
 371455.955976587 -1185018.91890246 -222036.180681725
 537002.829987914 -1081149.41863257 -366460.538249855
 742526.548333384 -868197.036945281 -535198.711674925
 944399.641526637 -499827.900546972 -670694.280457287
 1058379.19928453 -17967.9647940956 -686338.148205356
 1040310.71566456 426867.150433734 -571915.624609982
 934959.144651325 740787.087560224 -410652.309936103
 800907.778647089 936794.700118307 -269280.245936813
 668565.890171370 1056502.13119424 -168440.874494149
 550402.699471555 1130179.79734716 -106301.105364495
 454648.808341428 1174370.86312349 -75478.2607064239
 393168.354048426 1196814.85421408 -67840.1136964015
 1123.24197415465 -1261552.03077290 -5885.82187862956
 10231.5676685987 -1261256.11628930 -26033.7293683663
 33684.9534367895 -1259069.03387280 -71832.6024415806
 79139.4199395955 -1249763.17322842 -152899.947588646
 157847.102078699 -1219110.57320798 -283554.463158014
 284096.020115547 -1132192.98658113 -478516.377368589
 465783.419375519 -917381.999427240 -730072.259629609
 671115.336499029 -487901.516373283 -950318.760393269
 800643.912316794 103994.246849367 -969383.284986514
 791922.473534796 608282.043656574 -770974.177384992
 701549.971429160 909097.997632995 -522415.446944649
 593259.486769776 1064688.52432807 -325623.952498479
 491973.048043555 1145231.25776605 -194826.376944372
 404427.975425716 1189275.04070591 -116671.852500782
 334553.578348117 1213982.67021644 -76612.0783400774
 289818.061703267 1226180.82392867 -63525.6566997166
 -93256.6481473395 -1257774.21805150 -29268.4967195182
 -101674.688507164 -1256529.89855540 -48417.9994659708
 -108766.058386849 -1253211.02855745 -95820.1093921630
 -106963.652975143 -1243504.45644777 -183861.019946332
 -87014.9245313228 -1213950.06661769 -332119.059354715
 -35631.6777875301 -1127456.33569488 -564908.864825526
 63845.3529110053 -898361.198792840 -883414.035622094
 212060.061549298 -410057.275151502 -1174066.86023837
 348317.059987791 264230.844182584 -1183387.81370393
 400448.787889715 785724.283049626 -902123.910681212
 386543.817374419 1049577.36773971 -583541.478643252
 347014.316767768 1161630.65955059 -348919.339775266
 300963.939617382 1208732.55878407 -199839.283686281
 255851.081174954 1230233.70227336 -112315.150230685
 216666.408976389 1241037.93394478 -66557.8293690127
 190016.522994186 1246186.34327362 -49626.0994485215
 -190016.504539004 -1246186.34640567 -49626.0914621749
 -216666.390380050 -1241037.93804994 -66557.8133609880
 -255851.067104578 -1230233.70744243 -112315.125663698
 -300963.930099089 -1208732.56520369 -199839.259191896
 -347014.303549202 -1161630.67210153 -348919.311136775
 -386543.809084173 -1049577.39350818 -583541.437786741
 -400448.788750586 -785724.326044074 -902123.872852131
 -348317.067954351 -264230.911230346 -1183387.79638841
 -212060.081504334 410057.215497863 -1174066.87746886
 -63845.3628946869 898361.164707509 -883414.069562607
 35631.6731865200 1127456.31766189 -564908.901106348
 87014.9280157905 1213950.05835052 -332119.088659684
 106963.662837970 1243504.45362914 -183861.033271682
 108766.074036156 1253211.02649755 -95820.1185694498
 101674.705798253 1256529.89737771 -48417.9937187170
 93256.6656293292 1257774.21699293 -29268.4865080959
 -289818.042310477 -1226180.83014265 -63525.6252308326
 -334553.557332843 -1213982.67761128 -76612.0529331937
 -404427.959626481 -1189275.04861472 -116671.826649663
 -491973.039696873 -1145231.26596669 -194826.349816200
 -593259.470238283 -1064688.54223569 -325623.924065153
 -701549.955831714 -909098.032078289 -522415.407949322
 -791922.468793030 -608282.088442398 -770974.146920544
 -800643.916064202 -103994.305676068 -969383.275580554
 -671115.356460900 487901.470692408 -950318.769749129
 -465783.432667755 917381.977123144 -730072.279175718
 -284096.030231629 1132192.97191477 -478516.406063965
 -157847.106605869 1219110.56792894 -283554.483334493
 -79139.4114833630 1249763.17286259 -152899.954955706
 -33684.9420115512 1259069.03419120 -71832.6022183925
 -10231.5533041765 1261256.11672338 -26033.7139841682
 -1123.22360609783 1261552.03091846 -5885.79418575529
 -393168.325648095 -1196814.86539732 -67840.0809995239
 -454648.779181341 -1174370.87646681 -75478.2287447800
 -550402.677922488 -1130179.81050722 -106301.077024553
 -668565.876724648 -1056502.14366568 -168440.849642205
 -800907.763298823 -936794.719850699 -269280.222939750
 -934959.132728287 -740787.118394631 -410652.281459024
 -1040310.71137754 -426867.182733006 -571915.608300475
 -1058379.19934127 17967.9264186612 -686338.149122497
 -944399.647538323 499827.876585749 -670694.289849128
 -742526.553622138 868197.027017399 -535198.720442355
 -537002.836339091 1081149.41096297 -366460.551570203
 -371455.963742196 1185018.91358522 -222036.196068617
 -251764.444745083 1230678.57901258 -116594.727328192
 -170580.199341896 1249122.39834090 -46314.7975760098
 -119712.044810067 1255867.90676203 -3775.97821859567
 -94062.8889409164 1257942.55042355 16797.1329972159
 -500223.604650845 -1156607.36380155 -59876.3915838694
 -575714.022089912 -1120884.46816861 -60998.3992117012
 -689489.646147227 -1053388.42507810 -80785.4237236744
 -822361.011466873 -948524.381665523 -124793.009115787
 -959652.191782709 -795382.289164050 -194895.140549351
 -1084323.53506650 -577533.145869115 -286788.018652025
 -1169291.58194429 -279209.960443397 -382555.127141666
 -1176731.56303508 91132.5425756000 -445586.264554555
 -1083837.91803050 473246.865776074 -439183.563434901
 -916197.457771887 786122.988201610 -366254.415280220
 -726534.127462845 996988.837641209 -264028.123823175
 -553019.484461607 1121802.66490860 -165159.503900750
 -411026.191234677 1189727.44993662 -84590.1643536789
 -303104.769262958 1224347.60860544 -25492.4120308894
 -228116.713241454 1240695.59310539 13661.6729475555
 -186603.755400978 1247206.03375924 34721.4450125003
 -609792.711922474 -1103754.94241882 -37779.7100466993
 -694998.525032173 -1052367.54180295 -32388.8573691354
 -816723.833090809 -960601.570470941 -41907.4478962004
 -948247.769865150 -829097.164374400 -70522.9742073638
 -1071203.17651720 -656002.571152643 -117191.348569518
 -1169985.95722743 -437811.491534745 -176077.791585672
 -1227371.88856231 -173297.634840868 -234681.929096592
 -1224943.22228265 126116.695261458 -274149.798976932
 -1153767.35635718 428001.140024525 -277822.501718665
 -1026125.72895846 691989.490913285 -244470.783027324
 -868867.933053848 895185.250341564 -187779.960061237
 -707385.132610107 1037199.49740709 -123987.530258521
 -558593.189261041 1129321.87951697 -64460.6257679999
 -432485.139329842 1185021.58862641 -15161.4533320699
 -336290.739959580 1215730.18773223 21402.7982504427
 -278959.252719998 1229569.76861890 43466.6577886427
 -717507.108670765 -1037656.41614481 -1463.54343159838
 -806750.900950494 -969857.320727068 8898.99806898200
 -925792.638078221 -856983.198122122 6100.84711333371
 -1043656.41936988 -708625.539546477 -13437.0357391946
 -1143295.98360654 -531219.550960249 -47217.7240632022
 -1214742.49661000 -328536.437801555 -89520.4271958143
 -1250361.72565775 -103719.624010067 -131860.629167113
 -1243455.48721082 135959.457083827 -163960.081342138
 -1191216.27638933 375748.695096000 -177104.861361166
 -1098348.86618213 597318.100496428 -168494.171693598
 -975800.231976846 786936.383077424 -141754.954699682
 -836449.645079292 938699.812803588 -103653.671465075
 -692699.110009480 1052605.39987693 -61149.3749842050
 -556722.294197491 1131903.36336324 -20112.0379232488
 -442353.314282070 1181378.12225496 14788.7971100411
 -368649.800524020 1205884.55780708 38590.0082272100
 -813748.643756459 -962961.534465083 45471.5168443892
 -901114.463102566 -881031.489757432 57668.6167870158
 -1009277.40228399 -754823.034257207 56131.4805842953
 -1108236.89222323 -601577.546783318 38273.7095212259
 -1185309.30692967 -431892.687027395 7744.98012409788
 -1235920.27102414 -251307.169414649 -29920.2471810342
 -1258160.66871891 -62447.5468707514 -68421.2430285090
 -1250571.08629808 131757.745950052 -101298.003022579
 -1212507.64516007 325921.954717429 -123083.389539384
 -1145187.16583780 512848.032155301 -130700.734633614
 -1051649.94616101 685737.173226915 -123880.389542765
 -936188.923247328 839152.543057672 -104511.915051840
 -804790.240157477 968556.268657213 -75900.2945385664
 -666959.274566001 1070011.95749982 -42298.5554923901
 -538707.546128420 1140730.92194955 -8750.67833879368
 -447925.381761137 1179240.49109223 17439.8240140931
 -881746.797766290 -897685.826488722 90731.3202213388
 -963227.974106849 -808409.422521955 101071.788322399
 -1059023.65119346 -678796.471555639 96196.0879424721
 -1142857.70626266 -528966.957667639 74964.3371934264
 -1205275.01176639 -370284.041009794 41848.6069534514
 -1244329.40371992 -207818.255066618 2310.58824772678
 -1260249.81907893 -43034.2282929240 -38312.9172174716
 -1253267.19247606 123419.526512587 -75089.2512782859
 -1223373.76496710 290036.186015755 -103851.205629064
 -1170615.00590716 454319.025799467 -121672.353723224
 -1095095.37114026 613323.902230347 -127080.092772519
 -997053.184298449 763572.037118494 -119967.173551726
 -877996.111196908 900203.636188215 -101516.860843779
 -743530.476604897 1016461.34573980 -74284.5468148453
 -607917.330496146 1104617.45533819 -42499.7360412726
 -501595.838004045 1157477.35722205 -14043.2807506880
 513142.462734994 -1152418.46689787 12881.0329546826
 626210.668866006 -1095114.23647303 -11594.7484418736
 766959.508644150 -1000669.39291875 -44534.3585885307
 902470.971286759 -878259.084431006 -75871.9811135708
 1018991.57114336 -737085.101099797 -99554.8220551584
 1112253.68752724 -584696.570412948 -112120.854653988
 1182124.98742313 -426130.622569168 -111993.917413531
 1229519.66998749 -264604.010036104 -99073.3561842676
 1255181.36062454 -102470.831861604 -74625.1397136573
 1259527.37751192 58599.5382538785 -41307.5094061299
 1242580.10928217 218025.782724063 -2976.74366020219
 1203681.02261191 376062.119587887 35759.0398915888
 1141743.47044435 532051.431614807 69946.7850102357
 1057436.99099467 681467.198025601 94757.0525619538
 958925.976403030 812760.294153826 106916.354901561
 873232.282783429 904036.982201559 108314.108202460
 457539.215379361 -1175301.60964874 29553.7419976586
 553541.406746281 -1133622.92548388 6356.47336704702
 686912.959533403 -1057787.64512056 -28023.4682776890
 826958.015947151 -950522.232544623 -64787.0065529413
 957335.331076631 -815823.152370990 -97422.1681487921
 1069141.44016449 -658698.090214174 -120842.202024602
 1157426.51409657 -484427.884380291 -131312.300337947
 1219130.89586955 -298694.287773056 -126692.588998009
 1252377.37792216 -107911.964421328 -107029.631983425
 1256676.48457320 81658.6556530949 -75136.5955884789
 1232727.47041110 265745.177649405 -36220.3695301145
 1181460.06282590 442368.327042317 3437.16396806576
 1103876.83488449 609579.221711582 37663.4674699093
 1003431.71698198 762185.729660753 61213.8364674554
 891940.168081015 889335.198558200 71239.5402007347
 800822.025029347 972234.843563327 70660.6262938739
 376464.587648492 -1203351.04500048 42072.6474310871
 454292.285310459 -1176760.84381713 20046.6177982100
 573583.062578773 -1123514.56214533 -16337.9891388094
 712895.605672020 -1039044.60527595 -60955.6771714515
 857393.141241845 -919119.984505160 -107911.474615211
 994467.654977637 -761554.874318104 -150391.780109718
 1111973.82076227 -567811.266061657 -180704.230696951
 1198237.59788882 -345070.032699052 -191579.650426841
 1244172.17778468 -107266.462724285 -179105.915368793
 1246505.25697695 128422.960408103 -145882.207577875
 1208215.98888961 348794.044488953 -100529.943994241
 1135255.87316806 547613.382934296 -53508.0945991665
 1034291.42292519 722221.669008089 -13658.1183733843
 914438.257383074 869010.987982155 13115.1484718851
 792324.578071774 981406.606124305 24744.0368151962
 700390.539291942 1048985.89743398 25121.9102365063
 286323.383401648 -1227884.35918777 43224.4317306266
 347241.560198719 -1212643.47151523 21645.8028543080
 448136.247432076 -1179157.77753167 -17614.4924147258
 578245.876570112 -1118932.13984344 -71916.6432337168
 729062.122326114 -1020317.38739837 -137732.645661324
 889185.427079297 -870443.682911070 -207909.841202802
 1040777.74751523 -660009.280367100 -269664.348821620
 1159422.74548001 -392294.898873192 -305602.749497809
 1221542.02482643 -91578.1727316911 -301658.666013476
 1217788.54221684 203565.980542284 -259039.357878657
 1157224.05658186 463162.815377764 -194581.911385746
 1056898.96460584 676853.708384460 -127996.355339749
 932897.350724147 846129.659537334 -72914.7665569658
 800141.806077344 974698.648177372 -35847.8217949515
 676646.839050532 1064607.68094393 -17577.5936083119
 590047.389484099 1114995.36964655 -13372.9110035178
 194834.922010195 -1245975.51425810 33671.9757883882
 239661.337843587 -1238536.48256735 11800.6530189070
 319197.834054869 -1220113.08548600 -31404.3353609821
 431481.183351662 -1181484.06302125 -97307.9038886553
 576190.037830469 -1106660.90155250 -186697.938389466
 748391.740384783 -971846.986674406 -294911.288923746
 930123.687707047 -750218.377676565 -404464.760246846
 1083771.95046984 -431412.331169088 -480490.573069856
 1163089.08845125 -51647.9823686116 -485907.078731974
 1148507.33966874 312391.392816412 -418200.836130462
 1061714.76431306 604821.525157464 -313850.462585002
 937336.268742288 817529.422016231 -211177.163436406
 800873.437029143 965997.297920979 -130385.540568915
 668715.620673200 1066982.41657083 -76924.4584984331
 555055.261591844 1131856.15635048 -48628.4775586465
 479454.579900511 1166251.90953463 -39105.2456608860
 104097.007377443 -1257152.99177822 16721.2211597515
 132879.363181707 -1254534.87567536 -5895.03804700373
 188243.792770092 -1246286.08112846 -53709.4906692374
 274108.346884443 -1224283.99621626 -132449.015458655
 396972.024139727 -1171293.47244257 -249066.746842675
 560655.184760895 -1054948.74334520 -405337.320800912
 754154.180749014 -827038.204537298 -582072.771063430
 933333.305667142 -451996.067984684 -718427.397847398
 1027020.92123484 21342.3201931655 -732340.060104360
 1002936.43735909 455467.648564862 -614993.621631316
 900180.304461224 763795.506148886 -444793.519698543
 770365.810411569 955845.297787022 -290595.450353784
 641925.597496629 1071461.82969694 -177342.904284431
 526919.083448552 1141432.30385466 -105061.915715127
 433172.375228126 1183024.74599758 -66057.3585267860
 372685.708479161 1204174.75568139 -51165.9202399301
 13491.9513796030 -1261488.36118632 -3809.56144181020
 25566.5446038414 -1261015.43573752 -27126.6206462005
 53548.7813261803 -1257941.42483741 -79153.8414447253
 104171.113043920 -1245734.03076066 -169836.788508684
 186947.217332904 -1207712.27505518 -313099.392416352
 311867.915951013 -1106131.13105725 -520347.724916080
 478873.110022203 -872266.078242640 -775488.145727464
 652536.105794327 -438864.269306576 -986480.721899690
 753780.130562046 130458.290048271 -1003167.77273121
 740479.257435019 619371.955173357 -812168.874909750
 657309.512397264 919723.944337690 -560001.341108168
 556990.605129294 1076264.04737323 -350665.933686835
 462320.926871197 1155455.91502804 -206713.376254739
 379918.254217978 1197188.72592963 -118113.104852514
 313502.512739099 1219971.56909370 -70249.3845402663
 270602.221135448 1231147.84046222 -50979.0521756291
 -78375.8115071867 -1258896.49198032 -24213.3345327345
 -84043.4200951908 -1257864.89700375 -47560.8593635665
 -86599.3748429382 -1254461.54990354 -101863.629472850
 -79021.8455055805 -1243084.14887926 -200116.909972587
 -53303.5162732704 -1207511.31485162 -361420.240962179
 474.787636546423 -1106931.51361110 -605187.433503293
 91135.7511838371 -858983.331109227 -919451.653243175
 210762.231216299 -374916.046058908 -1185987.63535681
 313020.116531135 260946.514010378 -1193932.47480401
 352682.384343677 768744.341160125 -936053.793660865
 342073.576683049 1042894.95010842 -622017.059326012
 309866.605419778 1163526.36368916 -376481.764186348
 271042.429422857 1213336.71602914 -214241.559710382
 231919.016008905 1234602.52450477 -116273.846667514
 197005.073619402 1244489.25068535 -63126.3559520060
 172758.402271083 1249008.35084954 -41013.4718332576
 -172758.390002914 -1249008.35292339 -41013.4603532075
 -197005.063503633 -1244489.25314489 -63126.3390333565
 -231919.009051305 -1234602.52795898 -116273.823868132
 -271042.416368849 -1213336.72281403 -214241.537799735
 -309866.591233818 -1163526.37724908 -376481.733954955
 -342073.560803604 -1042894.97944961 -622017.018864352
 -352682.373229074 -768744.385740718 -936053.761236281
 -313020.116532607 -260946.571172799 -1193932.46231017
 -210762.233189039 374915.992692403 -1185987.65187652
 -91135.7510425790 858983.293987053 -919451.687937986
 -474.782047791348 1106931.49439261 -605187.468659676
 53303.5231639692 1207511.30536369 -361420.271645267
 79021.8533596011 1243084.14514069 -200116.930094422
 86599.3832621705 1254461.54858133 -101863.638598302
 84043.4281934129 1257864.89644020 -47560.8599579692
 78375.8244398168 1258896.49130393 -24213.3278376955
 -270602.207377310 -1231147.84458121 -50979.0257314093
 -313502.496821827 -1219971.57498542 -70249.3532569906
 -379918.242170587 -1197188.73251714 -118113.076833080
 -462320.915631801 -1155455.92446658 -206713.348633809
 -556990.586730603 -1076264.06667211 -350665.903678790
 -657309.496821382 -919723.977437216 -560001.305029232
 -740479.249824453 -619371.998482391 -812168.848820427
 -753780.125094513 -130458.342787369 -1003167.76998099
 -652536.108500734 438864.230621997 -986480.737319404
 -478873.114249797 872266.052286440 -775488.172312308
 -311867.925274465 1106131.11457658 -520347.754361959
 -186947.219948102 1207712.26824503 -313099.417123506
 -104171.112780688 1245734.02929943 -169836.799388136
 -53548.7779163920 1257941.42519920 -79153.8380018850
 -25566.5362993791 1261015.43615394 -27126.6091155403
 -13491.9369609740 1261488.36139303 -3809.54405700034
 -372685.685184517 -1204174.76433191 -51165.8863277237
 -433172.349661706 -1183024.75717706 -66057.3259652222
 -526919.066934394 -1141432.31454852 -105061.882356765
 -641925.584006599 -1071461.84152773 -177342.881635371
 -770365.793421599 -955845.320241076 -290595.421536713
 -900180.294402073 -763795.534960916 -444793.490580651
 -1002936.43284876 -455467.681772554 -614993.604393000
 -1027020.92000589 -21342.3495987758 -732340.060970872
 -933333.307551545 451996.044076554 -718427.410441023
 -754154.181956192 827038.192949060 -582072.785964515
 -560655.191305606 1054948.73364649 -405337.336990673
 -396972.026608121 1171293.46846202 -249066.761627872
 -274108.350799244 1224283.99450593 -132449.023166213
 -188243.793433826 1246286.08132040 -53709.4838891890
 -132879.357969605 1254534.87630645 -5895.02123022588
 -104096.996819510 1257152.99241479 16721.2390283701
 -479454.537612197 -1166251.92782727 -39105.2185929900
 -555055.222646689 -1131856.17674544 -48628.4473820956
 -668715.591820248 -1066982.43633365 -76924.4352007105
 -800873.418390361 -965997.316432542 -130385.517906778
 -937336.256362727 -817529.442734911 -211177.138176477
 -1061714.75886594 -604821.545132659 -313850.442517658
 -1148507.33892033 -312391.403179827 -418200.830444466
 -1163089.08664153 51647.9745873136 -485907.083890901
 -1083771.94749964 431412.327879346 -480490.582723035
 -930123.683564917 750218.378252667 -404464.768703680
 -748391.739361085 971846.984630335 -294911.298257575
 -576190.039660943 1106660.89945286 -186697.945185961
 -431481.190414910 1181484.06001960 -97307.9090140699
 -319197.838253186 1220113.08447847 -31404.3318331652
 -239661.336440865 1238536.48274604 11800.6627528117
 -194834.922342566 1245975.51388062 33671.9878331661
 -590047.325416826 -1114995.40371885 -13372.8969650521
 -676646.786710175 -1064607.71454508 -17577.5733495626
 -800141.767818618 -974698.680285049 -35847.8027448661
 -932897.327832896 -846129.686171341 -72914.7503649446
 -1056898.95408964 -676853.728209209 -127996.337340036
 -1157224.05470981 -463162.825433997 -194581.898582422
 -1217788.54231031 -203565.979653449 -259039.358137764
 -1221542.02290929 91578.1813618354 -301658.671156826
 -1159422.73879070 392294.911360285 -305602.758846917
 -1040777.73744705 660009.291748043 -269664.359824963
 -889185.419961746 870443.687846542 -207909.850979987
 -729062.122253117 1020317.38614447 -137732.655336504
 -578245.884547427 1118932.13516532 -71916.6518776612
 -448136.257023774 1179157.77379426 -17614.4985807812
 -347241.569307119 1212643.46887210 21645.8048110823
 -286323.392822937 1227884.35675531 43224.4384221075
 -700390.466754829 -1048985.94568966 25121.9175913767
 -792324.516370843 -981406.655687066 24744.0467545463
 -914438.215720895 -869011.031704708 13115.1562574546
 -1034291.39841335 -722221.704279310 -13658.1094960130
 -1135255.86363264 -547613.403894770 -53508.0823937442
 -1208215.98933945 -348794.045387615 -100529.935469953
 -1246505.25795684 -128422.950198823 -145882.208192518
 -1244172.17464169 107266.483881841 -179105.924530539
 -1198237.58921125 345070.055431546 -191579.663755437
 -1111973.80816860 567811.285697558 -180704.246492621
 -994467.643409828 761554.885691890 -150391.799007356
 -857393.138837951 919119.984601012 -107911.492898557
 -712895.612175331 1039044.60007930 -60955.6896946611
 -573583.078067784 1123514.55410355 -16337.9983699397
 -454292.304010943 1176760.83669532 20046.6120709788
 -376464.608490526 1203351.03869930 42072.6411620286
 -800821.950408376 -972234.904915981 70660.6278353919
 -891940.109507685 -889335.257316197 71239.5400371606
 -1003431.67827795 -762185.780604558 61213.8366014891
 -1103876.81343090 -609579.260315520 37663.4714513746
 -1181460.05561999 -442368.346226270 3437.17185934573
 -1232727.47073187 -265745.176413118 -36220.3676835145
 -1256676.48472912 -81658.6432524846 -75136.6064576332
 -1252377.37441468 107911.991053893 -107029.646173118
 -1219130.88695178 298694.314709752 -126692.611304623
 -1157426.50026919 484427.911186429 -131312.323325420
 -1069141.42737948 658698.106474390 -120842.226506205
 -957335.324800306 815823.157159943 -97422.1897209732
 -826958.022170828 950522.226379120 -64787.0175694752
 -686912.981379891 1057787.63063661 -28023.4794937178
 -553541.434363658 1133622.91207195 6356.46026465384
 -457539.248206850 1175301.59729992 29553.7248670608
 -873232.207357704 -904037.055403294 108314.105313612
 -958925.921687939 -812760.359725398 106916.347173533
 -1057436.95608056 -681467.253166175 94757.0456281824
 -1141743.45226896 -532051.470699676 69946.7843879343
 -1203681.01875314 -376062.131565045 35759.0438227586
 -1242580.10965468 -218025.780584280 -2976.74488817074
 -1259527.37766649 -58599.5247204128 -41307.5238919248
 -1255181.35691927 102470.860091190 -74625.1632722763
 -1229519.66188315 264604.038741826 -99073.3800938188
 -1182124.97444393 426130.652237778 -111993.941524939
 -1112253.67520765 584696.589337709 -112120.878175688
 -1018991.56039836 737085.112726598 -99554.8459528008
 -902470.975822494 878259.078542183 -75871.9953288781
 -766959.530061204 1000669.37601527 -44534.3695639366
 -626210.705772814 1095114.21516015 -11594.7681584324
 -513142.511122408 1152418.44558087 12881.0124958584
 535266.629438740 -1141419.47676634 46911.0262805598
 652168.223822171 -1079654.57837651 23917.1517164867
 796248.103890236 -978478.268319734 -10893.4106767443
 931702.637691803 -849265.078358971 -47206.4880818418
 1044666.52659756 -703010.064387646 -77447.5854705944
 1132100.78549572 -548172.870644569 -96972.9152300508
 1195324.45037700 -389913.253622084 -103520.741398624
 1236461.60144042 -231048.781584902 -96584.6758574374
 1257078.96559539 -73196.6195058130 -77098.3791626389
 1257948.81155615 82897.9614858736 -47351.3083759731
 1238947.25720969 237577.066315977 -10782.5012043710
 1198824.42974527 391868.135391256 28439.0933377117
 1135561.81600741 545633.472089223 65824.8211602315
 1048780.66780969 694406.397432748 96996.3759739392
 946218.858376080 825922.271231850 118624.216986439
 856583.779998886 917038.466068559 129823.381994148
 477421.211004613 -1166646.06093368 50550.8329285567
 577418.033706681 -1121311.43190458 28258.0599009514
 715191.942686414 -1039224.03943095 -7956.87779224647
 856870.348349705 -924606.674127363 -49245.6617088610
 985130.595482410 -783174.074983355 -87781.0289151000
 1091630.00316725 -621396.576620849 -117301.584251496
 1172761.83301255 -445428.507316666 -133313.760796224
 1227045.39817687 -261071.750605755 -133231.237957013
 1253964.33113127 -74070.7893074366 -116775.020191943
 1253740.98049161 110535.789195865 -86399.2133165959
 1226952.79589111 289714.254227823 -46924.6041130109