# OOMMF OVF 2.0
#
# Segment count: 1
#
# Begin: Segment
# Begin: Header
#
# Title: Oxs_MinDriver::Magnetization
# Desc: Oxs vector field output
# Desc:  MIF source file: C:/Users/grl31/Documents/GitHub/phd-work/multi-axis-tomo/stdprob3/drive-8/stdprob3.mif
# Desc:  Iteration: 323, State id: 720
# Desc:  Stage: 0, Stage iteration: 323
# Desc:  Stage simulation time: -1 s
# Desc:  Total simulation time: -2 s
# meshunit: m
# meshtype: rectangular
# xbase: 3.1250000000000007e-09
# ybase: 3.1250000000000007e-09
# zbase: 3.1250000000000007e-09
# xnodes: 20
# ynodes: 20
# znodes: 20
# xstepsize: 6.2500000000000014e-09
# ystepsize: 6.2500000000000014e-09
# zstepsize: 6.2500000000000014e-09
# xmin: 0
# ymin: 0
# zmin: 0
# xmax: 1.2500000000000002e-07
# ymax: 1.2500000000000002e-07
# zmax: 1.2500000000000002e-07
# valuedim: 3
# valuelabels: Magnetization_x Magnetization_y Magnetization_z
# valueunits: A/m A/m A/m
#
# End: Header
#
# Begin: Data Text
 -322069.300967894 -1137078.67591358 -441444.086012741
 -300548.318900129 -1141450.82482459 -445320.281856234
 -266400.434651337 -1148311.56222030 -449400.484431987
 -224409.533343272 -1156094.47746112 -452366.390713891
 -178085.363383726 -1163648.79044286 -453603.931605865
 -131062.119982560 -1170185.32456413 -452811.724449977
 -88092.5528958851 -1175250.29935148 -450084.288681008
 -57011.2566879676 -1178528.33272919 -446508.808966159
 0.000000000000000 -0.000000000000000 -0.000000000000000
 -0.000000000000000 0.000000000000000 0.000000000000000
 0.000000000000000 0.000000000000000 -0.000000000000000
 0.000000000000000 0.000000000000000 0.000000000000000
 57011.2566882140 -1178528.33272936 -446508.808965675
 88092.5528961260 -1175250.29935165 -450084.288680530
 131062.119982789 -1170185.32456429 -452811.724449507
 178085.363383940 -1163648.79044301 -453603.931605403
 224409.533343468 -1156094.47746126 -452366.390713438
 266400.434651513 -1148311.56222043 -449400.484431543
 300548.318900285 -1141450.82482472 -445320.281855796
 322069.300968035 -1137078.67591371 -441444.086012307
 -298626.235560519 -1154318.67887827 -412213.767293912
 -281354.503046634 -1158388.24222298 -412947.641734258
 -251410.955732590 -1164642.33435662 -414668.777798559
 -213339.127165700 -1171719.67331917 -416063.522669261
 -170940.667456008 -1178537.22706660 -416387.708208119
 -128152.501058671 -1184325.89961283 -415329.424550697
 -90041.6493346420 -1188608.22594526 -413100.977388490
 -64362.1301387964 -1191016.31027238 -410958.751930318
 0.000000000000000 0.000000000000000 0.000000000000000
 0.000000000000000 -0.000000000000000 0.000000000000000
 -0.000000000000000 -0.000000000000000 0.000000000000000
 -0.000000000000000 -0.000000000000000 -0.000000000000000
 64362.1301390398 -1191016.31027253 -410958.751929837
 90041.6493348777 -1188608.22594540 -413100.977388014
 128152.501058894 -1184325.89961297 -415329.424550230
 170940.667456213 -1178537.22706674 -416387.708207661
 213339.127165886 -1171719.67331929 -416063.522668812
 251410.955732755 -1164642.33435674 -414668.777798119
 281354.503046779 -1158388.24222310 -412947.641733824
 298626.235560649 -1154318.67887839 -412213.767293483
 -266014.202833443 -1176314.41921008 -370230.012246852
 -252001.550504758 -1179979.04658604 -368366.799644119
 -227018.902831299 -1185335.10060142 -367413.320333441
 -194618.164963851 -1191268.87583682 -366812.849076380
 -158313.447962767 -1196887.61787895 -365986.766538274
 -121929.561436239 -1201534.36102286 -364688.623689183
 -90177.8281042004 -1204797.72513080 -363152.628734828
 -69435.9604854664 -1206432.15494083 -362283.775285660
 -0.000000000000000 0.000000000000000 -0.000000000000000
 -0.000000000000000 -0.000000000000000 -0.000000000000000
 0.000000000000000 -0.000000000000000 -0.000000000000000
 0.000000000000000 0.000000000000000 0.000000000000000
 69435.9604857039 -1206432.15494096 -362283.775285187
 90177.8281044281 -1204797.72513092 -363152.628734362
 121929.561436452 -1201534.36102298 -364688.623688726
 158313.447962961 -1196887.61787906 -365986.766537826
 194618.164964023 -1191268.87583693 -366812.849075941
 227018.902831449 -1185335.10060153 -367413.320333010
 252001.550504888 -1179979.04658615 -368366.799643694
 266014.202833559 -1176314.41921018 -370230.012246432
 -229431.382205696 -1198067.36246403 -321784.503630338
 -218002.813340668 -1201101.67334638 -318400.651034232
 -197680.074097424 -1205376.36931325 -315499.330466782
 -171223.607839332 -1209993.37145308 -313285.729130839
 -141564.234251121 -1214278.15600618 -311508.520503181
 -111995.281105473 -1217739.71034328 -310026.588830905
 -86431.7535015070 -1220084.83389255 -308985.405822004
 -69830.8008473612 -1221189.21904440 -308820.306103236
 0.000000000000000 0.000000000000000 -0.000000000000000
 0.000000000000000 0.000000000000000 0.000000000000000
 0.000000000000000 0.000000000000000 -0.000000000000000
 -0.000000000000000 0.000000000000000 -0.000000000000000
 69830.8008475905 -1221189.21904450 -308820.306102779
 86431.7535017252 -1220084.83389265 -308985.405821553
 111995.281105674 -1217739.71034337 -310026.588830464
 141564.234251302 -1214278.15600627 -311508.520502749
 171223.607839491 -1209993.37145317 -313285.729130416
 197680.074097560 -1205376.36931334 -315499.330466366
 218002.813340784 -1201101.67334647 -318400.651033822
 229431.382205797 -1198067.36246412 -321784.503629930
 -191684.277253050 -1217199.15276119 -270615.578432522
 -182479.057191656 -1219491.88359495 -266627.775093722
 -166320.042001661 -1222646.64500827 -262720.870883051
 -145390.166262878 -1225981.30000123 -259578.470833560
 -121996.280340784 -1229022.21276440 -257236.737332896
 -98745.1717174762 -1231439.18191467 -255648.906171659
 -78677.9173091021 -1233047.48380946 -254859.017729433
 -65583.9015231009 -1233790.80708595 -254967.502105992
 0.000000000000000 -0.000000000000000 -0.000000000000000
 -0.000000000000000 -0.000000000000000 0.000000000000000
 0.000000000000000 -0.000000000000000 -0.000000000000000
 -0.000000000000000 -0.000000000000000 -0.000000000000000
 65583.9015233210 -1233790.80708603 -254967.502105555
 78677.9173093103 -1233047.48380954 -254859.017729003
 98745.1717176666 -1231439.18191474 -255648.906171238
 121996.280340953 -1229022.21276447 -257236.737332484
 145390.166263024 -1225981.30000130 -259578.470833156
 166320.042001785 -1222646.64500834 -262720.870882654
 182479.057191760 -1219491.88359502 -266627.775093329
 191684.277253140 -1217199.15276126 -270615.578432131
 -154323.811405622 -1232787.10043859 -219019.535988023
 -147108.033575816 -1234358.67650275 -215098.384742372
 -134622.195605657 -1236488.96341760 -211000.802642412
 -118580.113005210 -1238705.08946864 -207600.310797233
 -100723.774786410 -1240700.06784815 -205103.617114218
 -83001.4371917656 -1242270.95661092 -203526.565106505
 -67673.4322613664 -1243310.91667309 -202848.963434452
 -57591.4643727901 -1243794.09987454 -202999.732186108
 0.000000000000000 -0.000000000000000 0.000000000000000
 0.000000000000000 -0.000000000000000 0.000000000000000
 0.000000000000000 0.000000000000000 -0.000000000000000
 -0.000000000000000 -0.000000000000000 0.000000000000000
 57591.4643730011 -1243794.09987460 -202999.732185692
 67673.4322615653 -1243310.91667315 -202848.963434044
 83001.4371919462 -1242270.95661097 -203526.565106107
 100723.774786569 -1240700.06784820 -205103.617113828
 118580.113005347 -1238705.08946869 -207600.310796850
 134622.195605771 -1236488.96341765 -211000.802642035
 147108.033575910 -1234358.67650281 -215098.384741997
 154323.811405702 -1232787.10043865 -219019.535987649
 -118085.686305969 -1244706.82703048 -168256.103462317
 -112676.468506459 -1245662.92062327 -164855.489893959
 -103432.505354612 -1246946.59231795 -161168.680771667
 -91649.3411051339 -1248267.53440563 -158044.271464790
 -78584.8836044993 -1249446.61181010 -155746.625080844
 -65623.5933762371 -1250371.03533722 -154321.900263948
 -54375.4873728809 -1250984.09937179 -153725.470924226
 -46918.9116225628 -1251273.04291113 -153830.487014224
 0.000000000000000 -0.000000000000000 0.000000000000000
 -0.000000000000000 -0.000000000000000 -0.000000000000000
 -0.000000000000000 -0.000000000000000 -0.000000000000000
 0.000000000000000 0.000000000000000 -0.000000000000000
 46918.9116227658 -1251273.04291117 -153830.487013829
 54375.4873730718 -1250984.09937183 -153725.470923839
 65623.5933764098 -1250371.03533726 -154321.900263570
 78584.8836046505 -1249446.61181014 -155746.625080474
 91649.3411052624 -1248267.53440567 -158044.271464426
 103432.505354718 -1246946.59231799 -161168.680771307
 112676.468506545 -1245662.92062331 -164855.489893602
 118085.686306041 -1244706.82703052 -168256.103461960
 -83160.2347332841 -1253201.77334442 -118823.909902302
 -79409.1232226220 -1253688.05954641 -116231.972446214
 -73058.9643095178 -1254337.07938686 -113359.207514049
 -65015.7354222399 -1255000.32780476 -110889.865526108
 -56125.1700095522 -1255589.34962288 -109063.198760883
 -47303.9652073676 -1256050.51174005 -107929.966886776
 -39624.0802117517 -1256357.63166713 -107447.031313507
 -34500.9502141481 -1256504.51571681 -107496.592208963
 0.000000000000000 -0.000000000000000 0.000000000000000
 -0.000000000000000 -0.000000000000000 -0.000000000000000
 -0.000000000000000 -0.000000000000000 -0.000000000000000
 0.000000000000000 0.000000000000000 0.000000000000000
 34500.9502143446 -1256504.51571684 -107496.592208586
 39624.0802119364 -1256357.63166716 -107447.031313137
 47303.9652075342 -1256050.51174007 -107929.966886415
 56125.1700096976 -1255589.34962290 -109063.198760529
 65015.7354223625 -1255000.32780479 -110889.865525760
 73058.9643096185 -1254337.07938689 -113359.207513705
 79409.1232227031 -1253688.05954643 -116231.972445871
 83160.2347333518 -1253201.77334444 -118823.909901959
 -49382.9477811592 -1258616.02112942 -70685.6898088361
 -47178.4727790614 -1258790.13850939 -69072.4968182612
 -43469.6870129110 -1259021.72220280 -67261.5807979557
 -38792.2003404000 -1259257.43444576 -65691.0184484088
 -33632.4417459445 -1259466.19706503 -64522.7729696882
 -28511.7492984066 -1259629.62863906 -63794.2765890659
 -24043.0390205153 -1259738.89606619 -63476.5856954492
 -21049.3924174730 -1259791.72934943 -63491.3589441150
 0.000000000000000 0.000000000000000 -0.000000000000000
 0.000000000000000 0.000000000000000 -0.000000000000000
 0.000000000000000 0.000000000000000 -0.000000000000000
 -0.000000000000000 0.000000000000000 0.000000000000000
 21049.3924176650 -1259791.72934945 -63491.3589437496
 24043.0390206958 -1259738.89606620 -63476.5856950914
 28511.7492985692 -1259629.62863907 -63794.2765887167
 33632.4417460859 -1259466.19706505 -64522.7729693466
 38792.2003405191 -1259257.43444577 -65691.0184480726
 43469.6870130082 -1259021.72220282 -67261.5807976225
 47178.4727791392 -1258790.13850940 -69072.4968179286
 49382.9477812238 -1258616.02112943 -70685.6898085025
 -16371.7946005499 -1261241.96629603 -23454.1619808291
 -15644.7773419700 -1261261.24168987 -22907.4675989759
 -14425.3922222376 -1261286.83828538 -22290.1445994233
 -12890.8051414830 -1261312.84374191 -21752.4314377733
 -11199.6851766036 -1261335.84913800 -21351.1978640401
 -9521.10064794298 -1261353.86258580 -21100.0687506460
 -8054.43409411184 -1261365.93306510 -20989.0426931786
 -7069.82152677615 -1261371.80273422 -20991.0411737731
 -0.000000000000000 -0.000000000000000 0.000000000000000
 0.000000000000000 -0.000000000000000 -0.000000000000000
 -0.000000000000000 -0.000000000000000 -0.000000000000000
 -0.000000000000000 0.000000000000000 0.000000000000000
 7069.82152696606 -1261371.80273422 -20991.0411734139
 8054.43409429023 -1261365.93306511 -20989.0426928268
 9521.10064810363 -1261353.86258581 -21100.0687503028
 11199.6851767432 -1261335.84913800 -21351.1978637043
 12890.8051416004 -1261312.84374191 -21752.4314374426
 14425.3922223331 -1261286.83828538 -22290.1445990954
 15644.7773420464 -1261261.24168988 -22907.4675986484
 16371.7946006131 -1261241.96629604 -23454.1619805005
 16371.7940191137 -1261241.96693930 23454.1277950455
 15644.7792710314 -1261261.24228310 22907.4336187975
 14425.3956901422 -1261286.83886781 22290.1093981716
 12890.8130098280 -1261312.84418956 21752.4008180215
 11199.6944421798 -1261335.84952120 21351.1703658864
 9521.10901571176 -1261353.86292281 21100.0448288454
 8054.44796712069 -1261365.93342266 20989.0158816703
 7069.84131934422 -1261371.80314362 20991.0099063066
 -0.000000000000000 0.000000000000000 0.000000000000000
 -0.000000000000000 -0.000000000000000 -0.000000000000000
 0.000000000000000 0.000000000000000 -0.000000000000000
 0.000000000000000 -0.000000000000000 0.000000000000000
 -7069.84131915420 -1261371.80314361 20991.0099066664
 -8054.44796694217 -1261365.93342266 20989.0158820226
 -9521.10901555100 -1261353.86292280 21100.0448291891
 -11199.6944420401 -1261335.84952119 21351.1703662227
 -12890.8130097106 -1261312.84418955 21752.4008183525
 -14425.3956900466 -1261286.83886781 22290.1093985000
 -15644.7792709550 -1261261.24228310 22907.4336191254
 -16371.7940190505 -1261241.96693930 23454.1277953746
 49382.9511432184 -1258616.02263987 70685.6605651037
 47178.4772443797 -1258790.13993605 69072.4677685758
 43469.6924237233 -1259021.72365289 67261.5501578542
 38792.2124727127 -1259257.43551170 65690.9908504915
 33632.4495554660 -1259466.19815897 64522.7475456258
 28511.7571563210 -1259629.62956847 63794.2547256699
 24043.0499492794 -1259738.89704099 63476.5622104076
 21049.4094008177 -1259791.73037759 63491.3329130733
 -0.000000000000000 -0.000000000000000 -0.000000000000000
 -0.000000000000000 0.000000000000000 0.000000000000000
 0.000000000000000 -0.000000000000000 -0.000000000000000
 0.000000000000000 0.000000000000000 -0.000000000000000
 -21049.4094006252 -1259791.73037757 63491.3329134402
 -24043.0499490985 -1259738.89704097 63476.5622107669
 -28511.7571561580 -1259629.62956846 63794.2547260205
 -33632.4495553242 -1259466.19815896 64522.7475459688
 -38792.2124725934 -1259257.43551169 65690.9908508291
 -43469.6924236260 -1259021.72365288 67261.5501581889
 -47178.4772443018 -1258790.13993603 69072.4677689098
 -49382.9511431538 -1258616.02263986 70685.6605654387
 83160.2393567496 -1253201.77512197 118823.887919154
 79409.1301126549 -1253688.06106196 116231.951392091
 73058.9719480802 -1254337.08106868 113359.183981484
 65015.7463409229 -1255000.32920918 110889.843229839
 56125.1785158291 -1255589.35104235 109063.178041738
 47303.9711220666 -1256050.51301405 107929.949468036
 39624.0870561540 -1256357.63285085 107447.014948456
 34500.9621803757 -1256504.51681833 107496.575493008
 0.000000000000000 -0.000000000000000 0.000000000000000
 -0.000000000000000 0.000000000000000 0.000000000000000
 -0.000000000000000 0.000000000000000 -0.000000000000000
 -0.000000000000000 -0.000000000000000 0.000000000000000
 -34500.9621801785 -1256504.51681830 107496.575493388
 -39624.0870559686 -1256357.63285082 107447.014948828
 -47303.9711218994 -1256050.51301403 107929.949468400
 -56125.1785156833 -1255589.35104233 109063.178042094
 -65015.7463407998 -1255000.32920915 110889.843230189
 -73058.9719479794 -1254337.08106865 113359.183981831
 -79409.1301125736 -1253688.06106193 116231.951392437
 -83160.2393566819 -1253201.77512194 118823.887919500
 118085.689437890 -1244706.82850349 168256.090367357
 112676.474698982 -1245662.92168766 164855.477618794
 103432.511297376 -1246946.59369238 161168.666323947
 91649.3504928209 -1248267.53546322 158044.257667822
 78584.8898035654 -1249446.61311920 155746.611451053
 65623.5970786168 -1250371.03622199 154321.891520842
 54375.4924466712 -1250984.09995104 153725.464415705
 46918.9200293125 -1251273.04304648 153830.483349157
 -0.000000000000000 -0.000000000000000 -0.000000000000000
 0.000000000000000 0.000000000000000 0.000000000000000
 0.000000000000000 -0.000000000000000 -0.000000000000000
 -0.000000000000000 0.000000000000000 0.000000000000000
 -46918.9200291086 -1251273.04304644 153830.483349555
 -54375.4924464793 -1250984.09995100 153725.464416095
 -65623.5970784433 -1250371.03622195 154321.891521224
 -78584.8898034136 -1249446.61311916 155746.611451426
 -91649.3504926920 -1248267.53546318 158044.257668188
 -103432.511297270 -1246946.59369234 161168.666324310
 -112676.474698895 -1245662.92168762 164855.477619155
 -118085.689437817 -1244706.82850345 168256.090367718
 154323.809735896 -1232787.10145787 219019.531427340
 147108.035630445 -1234358.67691606 215098.380965425
 134622.197967359 -1236488.96407314 211000.797294077
 118580.116508800 -1238705.08984640 207600.306541981
 100723.778780434 -1240700.06819235 205103.613070684
 83001.4371265228 -1242270.95627605 203526.567177040
 67673.4364824953 -1243310.91541443 202848.969740907
 57591.4703574874 -1243794.09773611 202999.743590538
 0.000000000000000 0.000000000000000 -0.000000000000000
 -0.000000000000000 0.000000000000000 0.000000000000000
 0.000000000000000 0.000000000000000 0.000000000000000
 0.000000000000000 -0.000000000000000 -0.000000000000000
 -57591.4703572751 -1243794.09773605 202999.743590958
 -67673.4364822952 -1243310.91541437 202848.969741319
 -83001.4371263411 -1242270.95627600 203526.567177442
 -100723.778780274 -1240700.06819230 205103.613071078
 -118580.116508663 -1238705.08984635 207600.306542368
 -134622.197967245 -1236488.96407308 211000.797294459
 -147108.035630351 -1234358.67691600 215098.380965803
 -154323.809735816 -1232787.10145781 219019.531427718
 191684.269020124 -1217199.15313850 270615.582567016
 182479.051919120 -1219491.88329648 266627.780067399
 166320.037467703 -1222646.64480017 262720.874721783
 145390.163043986 -1225981.29923608 259578.476250279
 121996.279288211 -1229022.21147228 257236.744005565
 98745.1687683109 -1231439.17906296 255648.921047236
 78677.9188829407 -1233047.47972338 254859.037012647
 65583.9055106502 -1233790.80152865 254967.527972121
 -0.000000000000000 0.000000000000000 0.000000000000000
 -0.000000000000000 0.000000000000000 0.000000000000000
 -0.000000000000000 0.000000000000000 -0.000000000000000
 -0.000000000000000 -0.000000000000000 0.000000000000000
 -65583.9055104286 -1233790.80152857 254967.527972563
 -78677.9188827309 -1233047.47972331 254859.037013082
 -98745.1687681193 -1231439.17906289 255648.921047662
 -121996.279288041 -1229022.21147220 257236.744005981
 -145390.163043839 -1225981.29923601 259578.476250687
 -166320.037467579 -1222646.64480010 262720.874722185
 -182479.051919016 -1219491.88329640 266627.780067797
 -191684.269020034 -1217199.15313843 270615.582567412
 229431.371856660 -1198067.36059836 321784.517955410
 218002.801226292 -1201101.67151617 318400.666232820
 197680.063406941 -1205376.36745439 315499.344266905
 171223.599052381 -1209993.36867533 313285.744661699
 141564.226569467 -1214278.15210011 311508.539220158
 111995.275444697 -1217739.70396501 310026.615928739
 86431.7528082127 -1220084.82604535 308985.437002036
 69830.8019461915 -1221189.20954084 308820.343435342
 -0.000000000000000 0.000000000000000 0.000000000000000
 0.000000000000000 0.000000000000000 -0.000000000000000
 -0.000000000000000 0.000000000000000 -0.000000000000000
 -0.000000000000000 0.000000000000000 0.000000000000000
 -69830.8019459604 -1221189.20954074 308820.343435806
 -86431.7528079928 -1220084.82604525 308985.437002492
 -111995.275444494 -1217739.70396492 310026.615929185
 -141564.226569285 -1214278.15210002 311508.539220596
 -171223.599052221 -1209993.36867524 313285.744662127
 -197680.063406804 -1205376.36745430 315499.344267326
 -218002.801226176 -1201101.67151608 318400.666233236
 -229431.371856558 -1198067.36059827 321784.517955823
 266014.192540818 -1176314.41365609 370230.037288639
 252001.535230612 -1179979.04203541 368366.824670140
 227018.889770250 -1185335.09572913 367413.344122468
 194618.151272795 -1191268.87067167 366812.873114845
 158313.436964361 -1196887.61038782 365986.795794081
 121929.552469682 -1201534.35044027 364688.661553364
 90177.8237234312 -1204797.71339434 363152.668759600
 69435.9573983128 -1206432.14152953 362283.820537976
 0.000000000000000 -0.000000000000000 0.000000000000000
 0.000000000000000 0.000000000000000 -0.000000000000000
 -0.000000000000000 -0.000000000000000 0.000000000000000
 -0.000000000000000 0.000000000000000 -0.000000000000000
 -69435.9573980734 -1206432.14152941 362283.820538456
 -90177.8237232017 -1204797.71339422 363152.668760072
 -121929.552469467 -1201534.35044015 364688.661553827
 -158313.436964166 -1196887.61038771 365986.795794535
 -194618.151272622 -1191268.87067156 366812.873115289
 -227018.889770098 -1185335.09572902 367413.344122905
 -252001.535230481 -1179979.04203530 368366.824670570
 -266014.192540702 -1176314.41365598 370230.037289066
 298626.224615180 -1154318.66936267 412213.801869639
 281354.485722934 -1158388.23447546 412947.675270571
 251410.941619814 -1164642.32595648 414668.809947728
 213339.110461558 -1171719.66532828 416063.553738368
 170940.654801178 -1178537.21595204 416387.744861827
 128152.490346528 -1184325.88457542 415329.470735680
 90041.6406799217 -1188608.21071500 413101.023096667
 64362.1233026281 -1191016.29344920 410958.801756904
 -0.000000000000000 -0.000000000000000 -0.000000000000000
 -0.000000000000000 0.000000000000000 -0.000000000000000
 0.000000000000000 -0.000000000000000 0.000000000000000
 0.000000000000000 -0.000000000000000 0.000000000000000
 -64362.1233023827 -1191016.29344904 410958.801757393
 -90041.6406796840 -1188608.21071485 413101.023097149
 -128152.490346304 -1184325.88457528 415329.470736154
 -170940.654800970 -1178537.21595190 416387.744862291
 -213339.110461370 -1171719.66532816 416063.553738823
 -251410.941619648 -1164642.32595636 414668.809948174
 -281354.485722788 -1158388.23447534 412947.675271010
 -298626.224615049 -1154318.66936255 412213.801870075
 322069.291435023 -1137078.66310897 441444.125950071
 300548.301692870 -1141450.81414168 445320.320852051
 266400.419031633 -1148311.55150336 449400.521075198
 224409.514860837 -1156094.46714766 452366.426240316
 178085.349545661 -1163648.77662590 453603.972483919
 131062.108538378 -1170185.30652066 452811.774391506
 88092.5428866644 -1175250.28150553 450084.337239011
 57011.2477967676 -1178528.31360728 446508.860572323
 0.000000000000000 -0.000000000000000 0.000000000000000
 0.000000000000000 0.000000000000000 0.000000000000000
 -0.000000000000000 -0.000000000000000 -0.000000000000000
 0.000000000000000 0.000000000000000 -0.000000000000000
 -57011.2477965191 -1178528.31360710 446508.860572814
 -88092.5428864215 -1175250.28150537 450084.337239496
 -131062.108538147 -1170185.30652050 452811.774391983
 -178085.349545445 -1163648.77662575 453603.972484387
 -224409.514860640 -1156094.46714752 452366.426240774
 -266400.419031457 -1148311.55150323 449400.521075648
 -300548.301692713 -1141450.81414155 445320.320852494
 -322069.291434881 -1137078.66310884 441444.125950510
 -323866.899189356 -1142763.47541741 -425148.564363511
 -303205.830408828 -1146740.83367119 -429652.319574974
 -269527.457738340 -1153428.95974389 -434172.794251548
 -227638.174856342 -1161139.32268832 -437590.865505595
 -181142.012553382 -1168625.79017666 -439375.425736386
 -133764.336576026 -1175034.76468725 -439260.554745925
 -90436.8816905069 -1179870.64807620 -437350.951933682
 -59418.2038964996 -1182870.49854033 -434552.979103370
 -0.000000000000000 0.000000000000000 0.000000000000000
 0.000000000000000 0.000000000000000 -0.000000000000000
 -0.000000000000000 0.000000000000000 0.000000000000000
 -0.000000000000000 0.000000000000000 0.000000000000000
 59418.2038967378 -1182870.49854051 -434552.979102864
 90436.8816907425 -1179870.64807637 -437350.951933180
 133764.336576253 -1175034.76468741 -439260.554745430
 181142.012553597 -1168625.79017681 -439375.425735899
 227638.174856539 -1161139.32268846 -437590.865505116
 269527.457738519 -1153428.95974402 -434172.794251077
 303205.830408989 -1146740.83367132 -429652.319574510
 323866.899189504 -1142763.47541754 -425148.564363052
 -297196.146692711 -1159174.83237822 -399421.568384681
 -281415.372150275 -1162491.10020670 -401209.747110781
 -252532.911540919 -1168300.78924154 -403546.559104662
 -215055.739279851 -1175120.49100379 -405453.192791415
 -172970.887606432 -1181747.27710169 -406329.762658776
 -130398.039601882 -1187345.93160524 -405900.752509060
 -92701.2771312511 -1191415.78530848 -404331.956015060
 -68088.2142976948 -1193669.73635232 -402574.200004519
 -0.000000000000000 0.000000000000000 0.000000000000000
 -0.000000000000000 -0.000000000000000 -0.000000000000000
 -0.000000000000000 0.000000000000000 0.000000000000000
 0.000000000000000 0.000000000000000 -0.000000000000000
 68088.2142979286 -1193669.73635248 -402574.200004021
 92701.2771314803 -1191415.78530863 -404331.956014566
 130398.039602101 -1187345.93160538 -405900.752508573
 172970.887606636 -1181747.27710183 -406329.762658297
 215055.739280038 -1175120.49100392 -405453.192790945
 252532.911541087 -1168300.78924166 -403546.559104200
 281415.372150424 -1162491.10020682 -401209.747110325
 297196.146692848 -1159174.83237834 -399421.568384230
 -262135.300919464 -1180416.80879791 -359792.540831758
 -249819.419125516 -1183299.64077071 -359084.459283127
 -226277.145138977 -1188103.66143979 -358828.335252504
 -194893.737612018 -1193670.29882389 -358771.626057948
 -159358.843775956 -1199016.81386974 -358486.917316378
 -123707.637397333 -1203432.63103024 -357764.942301729
 -92945.7423992266 -1206487.84504020 -356787.891693470
 -73725.0620368503 -1207992.30726243 -356186.231824591
 -0.000000000000000 0.000000000000000 0.000000000000000
 -0.000000000000000 0.000000000000000 0.000000000000000
 0.000000000000000 0.000000000000000 0.000000000000000
 0.000000000000000 -0.000000000000000 0.000000000000000
 73725.0620370768 -1207992.30726256 -356186.231824106
 92945.7423994464 -1206487.84504032 -356787.891692990
 123707.637397541 -1203432.63103036 -357764.942301258
 159358.843776147 -1199016.81386985 -358486.917315915
 194893.737612191 -1193670.29882400 -358771.626057493
 226277.145139131 -1188103.66143989 -358828.335252056
 249819.419125651 -1183299.64077081 -359084.459282684
 262135.300919587 -1180416.80879802 -359792.540831319
 -224299.452355487 -1201333.42393005 -313108.912585529
 -214533.574104733 -1203704.74199312 -310837.048313245
 -195764.769651916 -1207463.09478829 -308639.693828200
 -170534.575531432 -1211708.10236787 -306970.461320515
 -141902.910616718 -1215711.02031949 -305711.808655147
 -113343.602760041 -1218944.05300022 -304759.010182996
 -89002.3683941432 -1221097.40001191 -304218.916281274
 -73976.0819853714 -1222079.00551918 -304302.274855599
 0.000000000000000 0.000000000000000 -0.000000000000000
 0.000000000000000 0.000000000000000 -0.000000000000000
 -0.000000000000000 0.000000000000000 0.000000000000000
 0.000000000000000 0.000000000000000 -0.000000000000000
 73976.0819855891 -1222079.00551929 -304302.274855132
 89002.3683943528 -1221097.40001200 -304218.916280814
 113343.602760237 -1218944.05300032 -304759.010182545
 141902.910616896 -1215711.02031958 -305711.808654704
 170534.575531591 -1211708.10236796 -306970.461320079
 195764.769652055 -1207463.09478838 -308639.693827772
 214533.574104853 -1203704.74199320 -310837.048312821
 224299.452355596 -1201333.42393014 -313108.912585107
 -186254.541768114 -1219605.69684334 -263477.932314979
 -178558.673562968 -1221395.82518597 -260496.581998036
 -163886.431986097 -1224137.25855404 -257252.095326013
 -144201.599500834 -1227159.87850067 -254625.140586263
 -121896.810445476 -1229959.91198364 -252763.156799728
 -99714.1075888202 -1232183.96664166 -251652.935643381
 -80860.9430292156 -1233633.91819183 -251313.140719033
 -69197.5592072472 -1234271.72422961 -251663.345535218
 0.000000000000000 -0.000000000000000 0.000000000000000
 0.000000000000000 -0.000000000000000 0.000000000000000
 -0.000000000000000 0.000000000000000 0.000000000000000
 0.000000000000000 0.000000000000000 -0.000000000000000
 69197.5592074552 -1234271.72422969 -251663.345534775
 80860.9430294149 -1233633.91819190 -251313.140718597
 99714.1075890045 -1232183.96664174 -251652.935642953
 121896.810445642 -1229959.91198371 -252763.156799308
 144201.599500980 -1227159.87850074 -254625.140585850
 163886.431986223 -1224137.25855411 -257252.095325605
 178558.673563076 -1221395.82518604 -260496.581997632
 186254.541768210 -1219605.69684341 -263477.932314576
 -149264.364279783 -1234408.51388346 -213319.481827456
 -143338.031610613 -1235634.86014805 -210262.055539864
 -132159.917646136 -1237472.32313815 -206749.695413994
 -117248.625208050 -1239461.33155199 -203808.239267095
 -100400.362708266 -1241278.68643706 -201733.538818113
 -83658.8191505146 -1242707.56514645 -200570.537280724
 -69401.5755869882 -1243631.59910996 -200283.044515005
 -60519.5839840306 -1244035.18450539 -200657.097023738
 -0.000000000000000 0.000000000000000 -0.000000000000000
 0.000000000000000 0.000000000000000 -0.000000000000000
 -0.000000000000000 0.000000000000000 0.000000000000000
 0.000000000000000 0.000000000000000 -0.000000000000000
 60519.5839842295 -1244035.18450545 -200657.097023318
 69401.5755871779 -1243631.59911002 -200283.044514592
 83658.8191506891 -1242707.56514650 -200570.537280319
 100400.362708422 -1241278.68643712 -201733.538817716
 117248.625208186 -1239461.33155204 -203808.239266705
 132159.917646251 -1237472.32313821 -206749.695413607
 143338.031610711 -1235634.86014811 -210262.055539480
 149264.364279869 -1234408.51388352 -213319.481827072
 -113831.459674276 -1245681.26644372 -163920.749566841
 -109452.173667078 -1246426.66628323 -161214.819965705
 -101269.897683906 -1247528.41685035 -158008.505761270
 -90420.5952391427 -1248706.05379725 -155263.447358531
 -78195.2289473854 -1249772.09907539 -153312.222153058
 -66043.2595808443 -1250606.01490294 -152224.552131012
 -55656.1079686632 -1251145.18538859 -151945.890512695
 -49136.4098805632 -1251382.33448413 -152240.917903318
 0.000000000000000 0.000000000000000 0.000000000000000
 -0.000000000000000 0.000000000000000 0.000000000000000
 0.000000000000000 0.000000000000000 0.000000000000000
 0.000000000000000 0.000000000000000 0.000000000000000