# OOMMF OVF 2.0
#
# Segment count: 1
#
# Begin: Segment
# Begin: Header
#
# Title: Oxs_MinDriver::Magnetization
# Desc: Oxs vector field output
# Desc:  MIF source file: C:/Users/grl31/Documents/GitHub/phd-work/Skyrmions/stdprob3/drive-62/stdprob3.mif
# Desc:  Iteration: 503, State id: 1075
# Desc:  Stage: 0, Stage iteration: 503
# Desc:  Stage simulation time: -1 s
# Desc:  Total simulation time: -2 s
# meshunit: m
# meshtype: rectangular
# xbase: 3.1249999999999999e-09
# ybase: 3.1249999999999999e-09
# zbase: 3.1249999999999999e-09
# xnodes: 16
# ynodes: 16
# znodes: 16
# xstepsize: 6.2499999999999997e-09
# ystepsize: 6.2499999999999997e-09
# zstepsize: 6.2499999999999997e-09
# xmin: 0
# ymin: 0
# zmin: 0
# xmax: 9.9999999999999995e-08
# ymax: 9.9999999999999995e-08
# zmax: 9.9999999999999995e-08
# valuedim: 3
# valuelabels: Magnetization_x Magnetization_y Magnetization_z
# valueunits: A/m A/m A/m
#
# End: Header
#
# Begin: Data Text
 501892.048841891 -1157377.12354577 -11488.9564869714
 608587.513314497 -1104335.12890266 -40181.9938303860
 744483.998217345 -1015911.08278401 -72233.5046490784
 879033.726236528 -899394.175897035 -99695.8144566358
 997994.485780949 -762601.771253464 -118300.362429085
 1095832.19563284 -612336.842736337 -125478.368498924
 1171116.27815825 -453456.361171088 -120055.913911844
 1223665.95573507 -289403.270698600 -102160.690105793
 1253408.48691414 -123069.489878320 -73283.6715213532
 1260305.18237636 43108.4326937965 -36358.5096630802
 1244345.00084549 207689.947037786 4453.72756482103
 1205248.22917157 370093.892703430 44234.0093296773
 1142705.52786705 528907.927593083 77652.5056275546
 1058568.60896463 679069.592165395 99229.1289388238
 962248.757201250 809147.766572397 104434.917697609
 880170.411622093 898862.076550140 94320.9667248958
 447938.572092267 -1179197.00841941 19871.6352021702
 538962.526303990 -1140625.64451259 -6478.05829015747
 667456.921207263 -1069781.90091362 -40216.5852493167
 805433.321708275 -968169.032207386 -73995.4071246418
 936852.147197420 -838631.916217165 -102732.635089645
 1052227.28922656 -685160.977568663 -122153.991105622
 1145620.42279861 -512321.430016177 -128957.474121768
 1212792.36712995 -325540.777807395 -121273.686902190
 1250742.78505187 -131577.528553198 -99394.5196651678
 1258269.25359479 62432.2566565715 -66408.8074409125
 1235996.90171249 251175.808375021 -27781.3455979502
 1185327.85352694 431794.534446038 10039.4519122468
 1108083.01981293 601697.746940493 40758.7223541883
 1008752.68918966 755319.089768939 58826.1472663969
 900014.774994635 881961.792815295 60549.4155573960
 812061.773794768 964238.859909097 48461.6085314312
 368418.062251289 -1205883.32550838 40779.4995900563
 442230.238450431 -1181395.90642231 16898.5031184160
 556742.062307492 -1131927.85403558 -18084.2537852744
 692860.840082972 -1052610.79438614 -59192.9281269993
 836722.068823347 -938666.400900017 -101739.855928444
 976130.789508168 -786869.072586296 -139839.820152544
 1098684.75637536 -597249.741653212 -166535.230874843
 1191524.30026355 -375721.742991648 -175078.395708090
 1243725.34734202 -136000.887898637 -161865.529958410
 1250594.48868079 103619.874874010 -129714.214068027
 1214924.48269412 328450.189795754 -87340.7413096165
 1143358.71127469 531276.226152209 -45009.5522827558
 1043455.78967472 708959.945975405 -11191.1087841971
 925141.024254839 857667.226418126 8393.14529251987
 805510.314888094 970863.755473014 11230.8430971423
 715738.159022864 1038878.01767203 884.892850557122
 278626.742675819 -1229576.04373206 45379.7517074396
 335964.481314963 -1215785.45277937 23303.0260651703
 432185.676838058 -1185153.91499526 -13235.1587220645
 558364.057803225 -1129546.62864050 -62477.3847031410
 707279.064798051 -1037516.29159079 -121924.977346880
 868929.362311873 -895574.753310626 -185626.117407674
 1026375.15958834 -692406.766735395 -242231.979882905
 1154181.57293422 -428370.300384640 -275523.525976316
 1225436.78814552 -126364.072949871 -271820.216772162
 1227827.80509389 173192.460231604 -232363.258016815
 1170303.31801423 437862.460367510 -173827.617382124
 1071277.35027471 656260.549961024 -115049.381885340
 947949.805715239 829607.781760314 -68494.7093294527
 815934.410873457 961354.524281591 -39974.3256960661
 693673.489521998 1053297.14182938 -30522.9727810310
 608039.378053703 1104782.77577501 -35952.2461868452
 186323.762187842 -1247200.42839281 36386.5082127343
 227777.785803465 -1240737.91530555 15366.7412508778
 302700.295922487 -1224484.28909315 -23668.2811252397
 410600.669150485 -1190015.34279798 -82583.3234832242
 552668.144994316 -1122300.64649862 -162937.445960929
 726399.700669845 -997723.571327496 -261611.507780564
 916438.593203941 -787012.069806099 -363733.058416273
 1084513.76163129 -474024.613849257 -436669.208001174
 1177640.50714766 -91500.1021774670 -443102.694807274
 1170080.45188475 279255.915091183 -380101.698131855
 1084778.39913497 577831.941433043 -284456.504845369
 959695.689606225 795845.937410460 -192776.705484485
 821954.343093859 949122.491042517 -122910.478745081
 688617.877770184 1054086.02284347 -79104.3979832073
 574410.154484601 1121636.02855986 -59456.0743775272
 498602.760064961 1157382.24103749 -58404.3380716614
 93956.9706224770 -1257929.98086605 18266.9600299325
 119514.162689238 -1255890.45644667 -2226.48642881483
 170262.967039362 -1249229.02622380 -44573.4563820153
 251355.255767516 -1230952.91351114 -114563.916812612
 371052.858028455 -1185586.62784782 -219666.919075912
 536810.016005040 -1082137.39142051 -363817.404373728
 742862.983258264 -869552.320737252 -532524.910707513
 945490.497184868 -501013.070939246 -668268.698503895
 1059864.93685658 -18268.8588282799 -684033.621496834
 1041468.23303563 427299.716324102 -569480.730952282
 935507.061502294 741425.927542237 -408244.488960268
 800902.199327997 937417.038315782 -267122.433175874
 668102.463699267 1057086.03152187 -166606.275029671
 549552.869418840 1130738.21150604 -104748.134458803
 453479.928758593 1174909.43563124 -74116.1466668460
 391776.591780913 1197342.43859782 -66570.3972055225
 1273.40254881202 -1261557.38454297 -4557.94580942738
 10277.2603268548 -1261284.53047714 -24599.6345134100
 33588.7527628780 -1259166.03409792 -70157.8590103388
 78909.1288353587 -1250025.41819370 -150861.639176660
 157554.012062656 -1219717.85640892 -281095.206218721
 283935.207160069 -1133388.55887316 -475773.689551389
 466154.009573259 -919191.382241069 -727555.546395931
 672429.290718584 -489417.882484188 -948608.673904761
 802464.101039523 104089.953851935 -967866.767158004
 793219.978336227 609357.610310168 -768787.876884326
 702083.640175322 910102.916505629 -519942.953106464
 593230.581889566 1065391.29503726 -323370.215215870
 491554.694596851 1145727.33221450 -192956.713683148
 403716.549212905 1189665.38883447 -115146.174143549
 333612.366339658 1214322.62657919 -75317.8499561794
 288717.734090349 1226501.17044297 -62340.8360763807
 -92802.5141873038 -1257835.87517627 -28036.3228512736
 -101331.210046186 -1256608.99335938 -47066.4912422828
 -108575.862642904 -1253349.87559145 -94206.1692523228
 -106940.365494264 -1243801.88228325 -181851.771439126
 -87142.7070886657 -1214609.93106201 -329663.912016084
 -35831.8344440694 -1128787.19228332 -562232.145200235
 63807.7345740240 -900417.234003520 -881321.058773098
 212604.301650458 -411537.387123626 -1173450.39129830
 349387.421388717 265077.289224902 -1182882.87308232
 401298.122887832 787493.147778841 -900202.082694230
 386923.155134300 1050853.06688065 -580988.584025032
 347024.330303026 1162336.82176177 -346549.647054269
 300702.512422867 1209117.31585970 -197895.796897639
 255373.363389294 1230474.19377388 -110757.097500449
 216012.098821859 1241221.04064000 -65257.4314089407
 189237.545387979 1246351.32972598 -48445.2807275400
 -189237.674719952 -1246351.31419494 -48445.1750960221
 -216012.272194154 -1241221.01628279 -65257.3208029673
 -255373.597445294 -1230474.15653592 -110756.971536823
 -300702.823316369 -1209117.26322428 -197895.646090392
 -347024.757768085 -1162336.75230108 -346549.451976378
 -386923.750739703 -1050852.99478976 -580988.317760225
 -401298.932746306 -787493.143951478 -900201.725017813
 -349388.442054979 -265077.436143318 -1182882.53868465
 -212605.357116102 411537.163093133 -1173450.27863891
 -63808.6095147314 900417.099340115 -881321.133008101
 35831.1854290375 1128787.15223250 -562232.266972069
 87142.2443577856 1214609.93007368 -329664.037974483
 106940.033878326 1243801.89411386 -181851.885532790
 108575.622879396 1253349.88835349 -94206.2757972987
 101331.035527034 1256609.00373432 -47066.5899742514
 92802.3856617718 1257835.88257454 -28036.4163611432
 -288717.859292748 -1226501.14707143 -62340.7160437123
 -333612.529081941 -1214322.58985140 -75317.7212553358
 -403716.761093289 -1189665.33148254 -115146.023812572
 -491554.960933119 -1145727.24856644 -192956.531875342
 -593230.921314158 -1065391.18092026 -323369.968508280
 -702084.072899555 -910102.785252369 -519942.598539114
 -793220.512047771 -609357.547378588 -768787.376091971
 -802464.756207196 -104090.086721969 -967866.209664586
 -672430.024732324 489417.592919731 -948608.302988170
 -466154.704549358 919191.131402166 -727555.418024675
 -283935.774703426 1133388.41159803 -475773.701687912
 -157554.441430096 1219717.78464847 -281095.276937965
 -78909.4474450453 1250025.38708186 -150861.730315287
 -33588.9866326174 1259166.02276229 -70157.9504898679
 -10277.4292968918 1261284.52727917 -24599.7278880489
 -1273.52474867306 1261557.38408646 -4558.03802106827
 -391776.708829589 -1197342.40823583 -66570.2544507932
 -453480.081157317 -1174909.38638551 -74115.9948710629
 -549553.054145349 -1130738.13786848 -104747.960210231
 -668102.678948509 -1057085.92803088 -166606.068496516
 -800902.439511305 -937416.907879546 -267122.170785852
 -935507.315903139 -741425.799553694 -408244.138435353
 -1041468.50521448 -427299.668589239 -569480.269007447
 -1059865.26327062 18268.7237525225 -684033.119347087
 -945490.908499390 501012.779928251 -668268.334737265
 -742863.442708150 869552.035013266 -532524.736337229
 -536810.444082081 1082137.19043068 -363817.370572294
 -371053.216921758 1185586.50756653 -219666.962029263
 -251355.539238757 1230952.84829297 -114563.995619794
 -170263.177607623 1249228.99415755 -44573.5507450537
 -119514.314404890 1255890.44183205 -2226.58621570757
 -93957.0837998099 1257929.97389848 18266.8577091310
 -498602.874239541 -1157382.20072583 -58404.1621981469
 -574410.291493354 -1121635.96776172 -59455.8976780049
 -688618.030548392 -1054085.93732002 -79104.2076427624
 -821954.504503797 -949122.379472097 -122910.260882055
 -959695.844073695 -795845.811568556 -192776.456019447
 -1084778.53084924 -577831.841693465 -284456.205157600
 -1170080.57074918 -279255.901156995 -380101.342464369
 -1177640.65338656 91499.9709975837 -443102.333234280
 -1084513.97843642 474024.366287394 -436668.938282539
 -916438.876661211 787011.804948607 -363732.917309426
 -726400.003053107 997723.359077077 -261611.477644529
 -552668.426501827 1122300.50147374 -162937.490034481
 -410600.906170454 1190015.25533519 -82583.4053577230
 -302700.477627052 1224484.24217184 -23668.3847389649
 -227777.919637905 1240737.89214775 15366.6272529242
 -186323.859071602 1247200.41747452 36386.3863418002
 -608039.484804053 -1104782.72366381 -35952.0421138377
 -693673.608059513 -1053297.06972475 -30522.7670749021
 -815934.530577441 -961354.431362009 -39974.1170128162
 -947949.916960188 -829607.672790174 -68494.4895725020
 -1071277.43780964 -656260.447690954 -115049.150172609
 -1170303.37931991 -437862.393470067 -173827.373149366
 -1227827.85204113 -173192.470074167 -232363.002607164
 -1225436.85280711 126363.953680208 -271819.980706822
 -1154181.69045764 428370.097450497 -275523.349176691
 -1026375.33210240 692406.540720924 -242231.894963323
 -868929.570082607 895574.552961657 -185626.111424383
 -707279.277992512 1037516.13979430 -121925.032325952
 -558364.252311292 1129546.52709416 -62477.4822581888
 -432185.834116622 1185153.85629230 -13235.2794968285
 -335964.597637481 1215785.42322145 23302.8911401782
 -278626.829506015 1229576.02920248 45379.6122618312
 -715738.251654895 -1038877.95364243 885.139906638605
 -805510.408026648 -970863.675430167 11231.0823130573
 -925141.108689295 -857667.133147286 8393.36946714581
 -1043455.85793207 -708959.848982394 -11190.8890200795
 -1143358.75524693 -531276.149410278 -45009.3411074558
 -1214924.50670894 -328450.154180735 -87340.5411915648
 -1250594.50547080 -103619.902611874 -129714.030034963
 -1243725.37858657 136000.785112076 -161865.376246910
 -1191524.36729405 375721.581152409 -175078.286831379
 -1098684.86439356 597249.553727516 -166535.192207939
 -976130.928706313 786868.895986508 -139839.842215583
 -836722.226594575 938666.252203378 -101739.930293055
 -692860.998705119 1052610.68357820 -59193.0418995751
 -556742.196063344 1131927.78603508 -18084.3922550581
 -442230.345204984 1181395.86869133 16898.3471942817
 -368418.141748260 1205883.30665182 40779.3389865490
 -812061.847730678 -964238.783171110 48461.8964536809
 -900014.840764943 -881961.707345978 60549.6828825283
 -1008752.74198066 -755319.000070870 58826.3937140199
 -1108083.05579191 -601697.665876797 40758.9409114525
 -1185327.87148443 -431794.480533219 10039.6505017379
 -1235996.90824908 -251175.794810550 -27781.1774218910
 -1258269.25927284 -62432.2910710504 -66408.6675031985
 -1250742.80237443 131577.441601024 -99394.4167910596
 -1212792.40766809 325540.651179454 -121273.621415626
 -1145620.49057562 512321.280873353 -128957.464524186
 -1052227.38178390 685160.828331265 -122154.030893647
 -936852.258179656 838631.781571288 -102732.722154148
 -805433.439341215 968168.924645521 -73995.5340589603
 -667457.029422030 1069781.82769427 -40216.7369286166
 -538962.617034666 1140625.60061026 -6478.23977530624
 -447938.646682521 1179196.98329459 19871.4447418375
 -880170.467259300 -898861.988738077 94321.2843706497
 -962248.799442609 -809147.679137418 104435.205925689
 -1058568.63715063 -679069.510665398 99229.3859935639
 -1142705.54323593 -528907.861560253 77652.7292282446
 -1205248.23424096 -370093.853641072 44234.1980270387
 -1244345.00078823 -207689.944009628 4453.88477193968
 -1260305.18444965 -43108.4717573592 -36358.3914801117
 -1253408.49882839 123069.417089599 -73283.5899839253
 -1223665.98346228 289403.168977868 -102160.646150080
 -1171116.32497595 453456.240015355 -120055.914826894
 -1095832.25785576 612336.721074623 -125478.418802902
 -997994.563505966 762601.654726640 -118300.457901396
 -879033.818377930 899394.070915325 -99695.9491114386
 -744484.086604620 1015911.00611152 -72233.6720159536
 -608587.591191997 1104335.07884098 -40182.1901763157
 -501892.121196743 1157377.09010628 -11489.1643173439
 513350.253199724 -1152288.55127954 15875.8637193098
 626851.721644043 -1094773.26580760 -8823.06430962158
 767921.901964464 -1000037.74655437 -42070.0471677655
 903523.951081821 -877360.851423985 -73700.9981549072
 1019938.00020460 -736036.415631103 -97602.7741537862
 1112983.78708065 -583654.395860587 -110290.828300356
 1182613.92655467 -425241.788289969 -110195.976014824
 1229801.54117706 -263974.241416399 -97237.8532575162
 1255320.31776723 -102151.762641519 -72700.3996478946
 1259592.48237071 58615.9262515674 -39247.7064784724
 1242620.81777421 217812.774204231 -727.699500920139
 1203697.94402056 375760.908696539 38267.8713176746
 1141655.06902614 531858.964059790 72795.4437799090
 1057059.53078882 681592.964825688 98008.2118376421
 958016.586922209 813343.119288993 110574.049424479
 871693.178188904 905037.790285002 112281.041026177
 457465.001904924 -1175258.92305816 32274.8620949807
 553760.331425416 -1133498.58956467 8937.20949059012
 687417.484089744 -1057520.00768490 -25652.8133507176
 827628.569469044 -950082.985493619 -62631.4824437996
 958028.921963701 -815243.725950462 -95434.1809753154
 1069743.31199087 -658065.839848012 -118945.482448433
 1157877.49757571 -483856.219286188 -129430.640054241
 1219429.62531626 -298284.507265398 -124768.475767851
 1252563.29525514 -107722.726532104 -105025.884842861
 1256802.70377613 81631.2873340583 -73025.5272363897
 1232827.11584593 265580.180036537 -33969.1231227890
 1181507.62190451 442215.618670110 5875.10891174658
 1103756.34699173 609626.114789215 40340.5200936386
 1002938.63953755 762592.045843332 64162.9788742071
 890858.826681555 890156.218920537 74443.8564262341
 799136.883054623 973369.572143460 74036.1336507539
 376144.786687255 -1203365.71292372 44446.4995981964
 454124.252203237 -1176784.06667406 22357.4350466221
 573600.633965385 -1123535.67090133 -14118.7763552410
 713088.288558488 -1039034.76910576 -58832.5779565174
 857718.249759262 -919054.946586462 -105862.363962915
 994860.241584029 -761438.058764619 -148373.222985447
 1112369.76031251 -567679.648930711 -178669.425059629
 1198596.02896718 -344975.660613748 -189496.131483384
 1244480.76435770 -107247.916854320 -176960.284790238
 1246767.30653292 128367.712000647 -143674.788307901
 1208419.96580520 348733.613323348 -98262.3228951269
 1135333.34715091 547676.262951014 -51169.6469214813
 1034097.24689798 722541.508336179 -11228.6957506681
 913784.417137223 869656.613899659 15647.4859552614
 791074.580400365 982344.864347028 27367.9859390189
 698612.936184707 1050102.99801617 27804.4937338160
 285908.129318527 -1227907.69403519 45262.2076097621
 346869.688427704 -1212711.83353339 23682.4613820620
 447830.557932376 -1179302.79454123 -15560.8832708934
 578049.495008487 -1119165.74445138 -69830.1416723096
 729026.535639428 -1020628.05443841 -135602.786644644
 889346.346703723 -870796.619040082 -205732.240526510
 1041135.24841055 -660349.040462189 -267443.396248118
 1159927.72904657 -392552.542002706 -303347.319215165
 1222094.95942561 -91704.6462204264 -299372.007587657
 1218275.82086975 203569.610026840 -256735.017238796
 1157551.31945251 463299.713274951 -192295.994321414
 1056965.81248368 677168.684105497 -125758.798604687
 932580.321039355 846664.241429852 -70732.1568531670
 799330.377361075 975440.388435397 -33710.9382212612
 675306.218861543 1065491.23884030 -15471.3167001513
 588292.084207315 1115945.63447005 -11278.0975884296
 194481.240557361 -1245982.00392065 35430.5503217092
 239281.500912843 -1238591.40604117 13605.9957668477
 318788.429224019 -1220267.84329661 -29491.6755726444
 431091.469337001 -1181794.60535135 -95242.2529462198
 575922.483847058 -1107173.89587152 -184468.663515183
 748386.709673926 -972560.811932082 -292561.499169659
 930509.909945158 -751015.358466389 -402090.375115358
 1084553.40856587 -432023.676921136 -478172.434867017
 1164036.92999437 -51825.4965230949 -483613.042047426
 1149291.27729879 312610.028567818 -415877.338746299
 1062141.29892657 605257.919907264 -311557.606909320
 937338.598938887 818084.039731058 -209007.860607086
 800424.777055914 966637.151937117 -128383.112942640
 667813.890440628 1067678.43933217 -75078.5511229956
 553741.586525587 1132572.50947858 -46895.5972824855
 477844.735559963 1166967.48716362 -37426.2410563685
 103926.791912134 -1257145.50657345 18270.9645059652
 132646.700592523 -1254566.10546142 -4262.71840811653
 187925.641504131 -1246410.77430216 -51899.5750242364
 273739.696979295 -1224587.84796369 -130386.394368073
 396662.585249729 -1171891.12715645 -246737.533573522
 560608.697305889 -1055925.59237934 -402850.422343431
 754638.886372145 -828269.811491512 -579688.452072127
 934465.128660857 -452936.207517859 -716361.044554449
 1028417.90656382 21284.8692739148 -730378.665294814
 1003979.50021781 456100.617686217 -612818.750208908
 900629.656019580 764594.023945763 -442506.081498813
 770279.207871834 956570.203340198 -288431.653812453
 641403.965908652 1072090.50086508 -175420.470272050
 526039.949956781 1141991.41615461 -103377.983137701
 432003.732781542 1183535.42414922 -64545.3760210414
 371317.920193008 1204657.08022301 -49736.8287195036
 13585.9204034167 -1261490.81483615 -2403.69918377525
 25583.2055985916 -1261046.72477083 -25614.2236857913
 53456.7914598731 -1258053.46865712 -77416.2280503765
 103987.745251650 -1246028.35034032 -167777.620392660
 186756.952256950 -1208359.02150464 -310708.459574254
 311863.194947173 -1107315.86452410 -517824.637043799
 479372.310558630 -873893.114283353 -773344.970628746
 653758.137481175 -440045.086383782 -985144.685082139
 755290.160685730 130750.630501533 -1001993.25183043
 741506.275646040 620571.175876693 -810314.315415636
 657666.822092497 920857.942878985 -557713.574403916
 556848.696402969 1077058.85880493 -348443.933658042
 461837.562489905 1155992.80160835 -204783.152192786
 379182.843025723 1197581.43758782 -116483.916567830
 312571.206415054 1220291.06145705 -68836.0164973393
 269536.353141537 1231435.13977128 -49669.7271042677
 -77970.9680519337 -1258946.27632238 -22896.1218114850
 -83723.5793417682 -1257939.66835339 -46125.7407974402
 -86398.9993701715 -1254610.82790179 -100181.407149064
 -78943.5536600311 -1243414.77808299 -198083.406420900
 -53316.6018368841 -1208221.12897101 -359038.263135762
 454.671076129225 -1108262.97494936 -602745.719644323
 91282.7132978746 -860836.914938641 -917701.859565979
 211284.421772744 -376087.184091455 -1185523.83105413
 313783.936944070 261746.771445778 -1193556.74329818
 353222.553762202 770445.764100967 -934449.882557400
 342246.129441377 1044226.96584258 -619683.033177897
 309753.106690153 1164301.77797962 -374170.834791073
 270718.297503601 1213757.39078073 -212259.347593589
 231424.290236277 1234848.74114389 -114633.395234241
 196368.387427034 1244659.97750835 -61728.6621204015
 172021.942505143 1249151.40109193 -39732.3465929914
 -172022.073714045 -1249151.38692631 -39732.2238762728
 -196368.551907363 -1244659.95789714 -61728.5343114305
 -231424.514600893 -1234848.71228743 -114633.253128240
 -270718.601027176 -1213757.35202655 -212259.182082537
 -309753.516238998 -1164301.73732614 -374170.622251218
 -342246.691764389 -1044226.94437758 -619682.758781581
 -353223.293208365 -770445.822359968 -934449.555011968
 -313784.839761700 -261746.968185704 -1193556.46280361
 -211285.347003714 376086.930960564 -1185523.74646025
 -91283.5012477528 860836.742980386 -917701.942492128
 -455.266342156909 1108262.89746529 -602745.861664224
 53316.1654645193 1208221.10528703 -359038.407636434
 78943.2343157428 1243414.77699687 -198083.540508932
 86398.7687350123 1254610.83409565 -100181.528486331
 83723.4091473282 1257939.67538672 -46125.8579070220
 77970.8395298044 1258946.28219946 -22896.2363310336
 -269536.478667624 -1231435.11792349 -49669.5875880442
 -312571.367909868 -1220291.02822484 -68835.8723041561
 -379183.051482186 -1197581.38764244 -116483.751485004
 -461837.829088305 -1155992.73019044 -204782.954097305
 -556849.034951475 -1077058.76733128 -348443.675372915
 -657667.242342622 -920857.857981620 -557713.219013058
 -741506.798806103 -620571.163736373 -810313.845977077
 -755290.780515238 -130750.791031180 -1001992.76366267
 -653758.816222926 440044.797288641 -985144.363790886
 -479372.944495862 873892.858602261 -773344.866594645
 -311863.718089850 1107315.70201457 -517824.669487769
 -186757.356617824 1208358.93592500 -310708.549348566
 -103988.046317031 1246028.31062951 -167777.728712406
 -53457.0103590206 1258053.45260941 -77416.3376812508
 -25583.3657734705 1261046.71917308 -25614.3392938205
 -13586.0479979801 1261490.81324034 -2403.81550340878
 -371318.043782569 -1204657.04888940 -49736.6649619006
 -432003.880408050 -1183535.37935970 -64545.2092353293
 -526040.130701964 -1141991.35018834 -103377.792126910
 -641404.182004189 -1072090.40757216 -175420.250308379
 -770279.449089749 -956570.090350353 -288431.384346544
 -900629.921240330 -764593.918734436 -442505.723488307
 -1003979.78669061 -456100.594315997 -612818.298274635
 -1028418.23888325 -21285.0072110388 -730378.193348666
 -934465.522062099 452935.934648915 -716360.703905425
 -754639.311239982 828269.535496962 -579688.293324822
 -560609.095329050 1055925.38757826 -402850.405263533
 -396662.916633914 1171891.00184507 -246737.596002277
 -273739.960946233 1224587.77846098 -130386.492951159
 -187925.841268375 1246410.73936574 -51899.6907146682
 -132646.849262810 1254566.08933313 -4262.83884169308
 -103926.902671123 1257145.49918786 18270.8426694566
 -477844.848521143 -1166967.44699071 -37426.0514181673
 -553741.722502292 -1132572.45101615 -46895.4035958821
 -667814.041727473 -1067678.35944356 -75078.3415272671
 -800424.941668896 -966637.046399937 -128382.881259549
 -937338.759901981 -818083.923442319 -209007.593904126
 -1062141.44285275 -605257.828789370 -311557.293258881
 -1149291.41035054 -312610.018625961 -415876.978526206
 -1164037.08208649 51825.3714719347 -483612.689368594
 -1084553.61574958 432023.448726918 -478172.171119945
 -930510.171579622 751015.107347509 -402090.238679859
 -748386.988454195 972560.603068980 -292561.480358432
 -575922.742952700 1107173.75231147 -184468.716213179
 -431091.688817707 1181794.51693750 -95242.3565841408
 -318788.602261225 1220267.79504367 -29491.8016834672
 -239281.626843259 1238591.38319896 13605.8604827952
 -194481.343685474 1245981.99191168 35430.4065606926
 -588292.189015633 -1115945.58153501 -11277.8683550593
 -675306.331144650 -1065491.17098692 -15471.0886439301
 -799330.493912596 -975440.300718030 -33710.7127708324
 -932580.433191566 -846664.137634507 -70731.9205931943
 -1056965.90487140 -677168.585810788 -125758.551396551
 -1157551.38832808 -463299.648013991 -192295.736949116
 -1218275.87482312 -203569.620468096 -256734.752936551
 -1222095.02604776 91704.5434425095 -299371.767106199
 -1159927.83838792 392552.353778313 -303347.144695302
 -1041135.40554388 660348.827039632 -267443.311506057
 -889346.533248547 870796.428010997 -205732.242687029
 -729026.733103965 1020627.90439997 -135602.854316685
 -578049.678531695 1119165.64257698 -69830.2552165378
 -447830.706901254 1179302.73604884 -15561.0289822820
 -346869.803076261 1212711.80379450 23682.3050034571
 -285908.219380094 1227907.67916268 45262.0421896785
 -698613.023819135 -1050102.93251286 27804.7657268264
 -791074.668810883 -982344.785923535 27368.2453501987
 -913784.494757460 -869656.527827698 15647.7367846125
 -1034097.31441094 -722541.415442996 -11228.4556672456
 -1135333.39348902 -547676.187851401 -51169.4225901677
 -1208419.99313206 -348733.578103738 -98262.1118266908
 -1246767.32689646 -128367.733332924 -143674.592539464
 -1244480.79452399 107247.822773051 -176960.129662978
 -1198596.08858672 344975.511803823 -189496.025286174
 -1112369.85488430 567679.474144480 -178669.391611120
 -994860.368198561 761437.887485929 -148373.253006543
 -857718.396888886 919054.799214535 -105862.451313222
 -713088.433574845 1039034.66203830 -58832.7111705611
 -573600.760664729 1123535.60412882 -14118.9425484877
 -454124.355009146 1176784.03059052 22357.2461098362
 -376144.864662801 1203365.69565926 44446.3071274875
 -799136.947170404 -973369.495203408 74036.4531402186
 -890858.882973566 -890156.137500740 74444.1563576822
 -1002938.68658784 -762591.961555290 64163.2452083999
 -1103756.38099207 -609626.037250154 40340.7615806699
 -1181507.64124032 -442215.564176022 5875.32213397797
 -1232827.12455497 -265580.163237230 -33968.9383904050
 -1256802.71049524 -81631.3171926499 -73025.3782199537
 -1252563.31057407 107722.652137074 -105025.778451035
 -1219429.66003972 298284.390824464 -124768.414772485
 -1157877.55661574 483856.079081533 -129430.636019282
 -1069743.39360486 658065.697225560 -118945.537506618
 -958029.023289747 815243.593850281 -95434.2922618792
 -827628.682684843 950082.876733678 -62631.6362053809
 -687417.585769530 1057519.93705397 -25653.0003528337
 -553760.417980410 1133498.54897068 8936.99493558504
 -457465.077372499 1175258.89981599 32274.6387560966
 -871693.225225242 -905037.700535719 112281.399280504
 -958016.623408956 -813343.032496121 110574.371719081
 -1057059.55574424 -681592.885220981 98008.4962893044
 -1141655.08399631 -531858.899003986 72795.6843129905
 -1203697.95027050 -375760.867515752 38268.0790914543
 -1242620.81887430 -217812.768490002 -727.531340027710
 -1259592.48476510 -58615.9578829175 -39247.5823930966
 -1255320.32795077 102151.696375429 -72700.3169191056
 -1229801.56446250 263974.146065927 -97237.8176087702
 -1182613.96601202 425241.675101955 -110195.989349725
 -1112983.84343773 583654.275849759 -110290.894673233
 -1019938.07297061 736036.298680258 -97602.8956999825
 -903524.037014733 877360.748857301 -73701.1656631552
 -767921.984900709 1000037.67426059 -42070.2517770659
 -626851.799423703 1094773.21935319 -8823.30240142754
 -513350.323880449 1152288.52325658 15875.6121757517
 535355.623469257 -1141226.85313242 50448.5582378359
 652726.752111703 -1079238.59249413 27226.4295851687
 797162.616466373 -977761.815324811 -7938.91177494806
 932722.626776892 -848284.744875133 -44619.7717329207
 1045581.83887823 -701896.882198495 -75158.6048766693
 1132800.37165013 -547093.528201245 -94875.8151933238
 1195788.62606843 -389017.118343808 -101511.941759605
 1236730.23671092 -230439.500477542 -94580.0673692105
 1257219.94329968 -72922.7040617637 -75031.4888619186
 1258032.76737550 82846.4269186997 -45160.3440564703
 1239023.92831778 237273.378679119 -8395.22156480226
 1198893.78419393 391452.491702077 31113.8535115523
 1135539.17399931 545302.164987827 68889.5063961102
 1048473.00447049 694367.782723190 100534.432567489
 945367.706366856 826308.819060510 122650.178232444
 855084.812352913 917803.615683782 134223.387083305
 477237.407567917 -1166581.80746925 53672.8443310275
 577565.978144279 -1121155.91967273 31247.0093288483
 715670.563301601 -1038911.93571668 -5202.45787584644
 857543.990693486 -924111.224678751 -46756.5970445247
 985837.789269080 -782534.236285352 -85518.7301666105
 1092245.63478464 -620710.102085823 -115186.255175947
 1173225.39823942 -444817.481800373 -131259.299593099
 1227358.99741511 -260642.382088785 -131167.339845763
 1254171.48574929 -73883.4372126491 -114649.696720148
 1253897.23210406 110485.114024363 -84167.7005729898
 1227091.35485078 289504.567308681 -44534.7423575183