# ODT 1.0
# Table Start
# Title: mmArchive Data Table, Mon Feb 01 16:24:30 GMT 2021
# Columns: {Oxs_CGEvolve:evolver:Max mxHxm} {Oxs_CGEvolve:evolver:Total energy} {Oxs_CGEvolve:evolver:Delta E} {Oxs_CGEvolve:evolver:Bracket count} {Oxs_CGEvolve:evolver:Line min count} {Oxs_CGEvolve:evolver:Conjugate cycle count} {Oxs_CGEvolve:evolver:Cycle count} {Oxs_CGEvolve:evolver:Cycle sub count} {Oxs_CGEvolve:evolver:Energy calc count} Oxs_UniformExchange:exchange:Energy {Oxs_UniformExchange:exchange:Max Spin Ang} {Oxs_UniformExchange:exchange:Stage Max Spin Ang} {Oxs_UniformExchange:exchange:Run Max Spin Ang} Oxs_UniaxialAnisotropy:uniaxialanisotropy:Energy Oxs_Demag:demag:Energy Oxs_MinDriver::Iteration {Oxs_MinDriver::Stage iteration} Oxs_MinDriver::Stage Oxs_MinDriver::mx    Oxs_MinDriver::my    Oxs_MinDriver::mz   
# Units:                 A/m                                 J                                J                                 {}                                   {}                                        {}                                      {}                                   {}                                      {}                                     J                                      deg                                            deg                                              deg                                              J                                   J                       {}                           {}                         {}                 {}                   {}                   {}           
                  0.079592447729899998               2.2675106443200002e-16               0                                 353                                  196                                       112                                     310                                  145                                     550                                   1.2948811564499999e-16                     31.509600998100002                             179.51998427699999                               179.51998427699999                               4.7416698211600002e-17                 4.98462505748e-17       517                          517                        0                   -1.44185007143e-18    6.6238900635400003e-09 -0.17296199377999999
# Table End
