# OOMMF OVF 2.0
#
# Segment count: 1
#
# Begin: Segment
# Begin: Header
#
# Title: Oxs_MinDriver::Magnetization
# Desc: Oxs vector field output
# Desc:  MIF source file: C:/Users/grl31/Documents/GitHub/phd-work/Skyrmions/stdprob3/drive-35/stdprob3.mif
# Desc:  Iteration: 526, State id: 1123
# Desc:  Stage: 0, Stage iteration: 526
# Desc:  Stage simulation time: -1 s
# Desc:  Total simulation time: -2 s
# meshunit: m
# meshtype: rectangular
# xbase: 3.1249999999999999e-09
# ybase: 3.1249999999999999e-09
# zbase: 3.1249999999999999e-09
# xnodes: 16
# ynodes: 16
# znodes: 16
# xstepsize: 6.2499999999999997e-09
# ystepsize: 6.2499999999999997e-09
# zstepsize: 6.2499999999999997e-09
# xmin: 0
# ymin: 0
# zmin: 0
# xmax: 9.9999999999999995e-08
# ymax: 9.9999999999999995e-08
# zmax: 9.9999999999999995e-08
# valuedim: 3
# valuelabels: Magnetization_x Magnetization_y Magnetization_z
# valueunits: A/m A/m A/m
#
# End: Header
#
# Begin: Data Text
 501604.433197533 -1157474.53911736 -13968.3503172413
 607936.836991038 -1104609.33487011 -42431.7153330134
 743558.271848390 -1016445.41426392 -74224.3026685375
 878026.390484384 -900180.139884360 -101463.314994593
 997080.680314539 -763543.838541206 -119918.115763257
 1095116.92538417 -613295.187281356 -127032.924525896
 1170629.69757451 -454293.911120991 -121624.768834185
 1223382.35654516 -290017.749478413 -103801.472053349
 1253271.37496573 -123409.327509518 -75036.1878969798
 1260251.48811771 43036.3992977908 -38255.5349137156
 1244329.90524147 207814.543697528 2373.45075494154
 1205274.26898096 370278.553632661 41918.4943798388
 1142853.30446920 528965.314421928 75042.9978165514
 1059010.42966287 678804.531486858 96284.7278498888
 963199.502144026 808431.066081699 101169.962846998
 881700.978129084 897720.240813726 90836.0353522551
 447925.751171394 -1179239.29315071 17511.1920184240
 538714.965492708 -1140727.92796867 -8683.96369435095
 666973.780419824 -1070005.33123486 -42237.4038076947
 804809.001865900 -968545.064870659 -75844.3059778297
 936208.289434359 -839137.453535171 -104459.579684452
 1051666.82891159 -685720.456999865 -123829.587489819
 1145199.86359030 -512832.743908211 -130649.455135777
 1212516.01930569 -325910.885878421 -123030.192684516
 1250576.16502113 -131752.509397270 -101242.099284473
 1258163.90040019 62447.1144299158 -68362.1865369569
 1235922.55764107 251303.383935036 -29857.5225983598
 1185309.88175656 431889.898684316 7812.20478818066
 1108232.42565042 601581.143204640 38346.4443794946
 1009262.12798305 754837.595096006 56210.2567842200
 901082.450054075 881058.720152798 57752.7554858856
 813699.553069842 962998.890979125 45558.7996534979
 368643.040833409 -1205884.56453899 38654.3189135754
 442349.717505758 -1181378.69162656 14850.7680692051
 556722.862664941 -1131904.14078317 -20052.4607723521
 692703.821939689 -1052605.63739618 -61091.8825285068
 836457.595112072 -938698.938955538 -103597.415518103
 975809.899639668 -786934.533497303 -141698.661509407
 1098358.71610872 -597316.220294932 -168436.619057557
 1191225.34098773 -375747.994935563 -177045.367659008
 1243463.45153494 -135960.704025746 -163898.635066317
 1250368.60066697 103716.734343929 -131797.694980274
 1214747.86532256 328533.989840465 -89456.5376747469
 1143297.84173235 531221.298389404 -47153.0290287177
 1043650.57121288 708635.396386456 -13371.2794523802
 925773.635206637 857003.246314363 6167.90741553992
 806714.738412337 969886.772588108 8967.16822040185
 717455.564767891 1037692.14978152 -1394.91374318232
 278949.549556181 -1229569.98035549 43522.9035101346
 336281.211986053 -1215731.83848302 21458.6645165239
 432476.388842325 -1185025.50524479 -15104.8314190330
 558586.484673487 -1129328.52106880 -64402.3412589512
 707382.023762077 -1037208.85967947 -123926.933229358
 868869.733745963 -895196.766148910 -187716.718956266
 1026133.05441493 -692001.827402220 -244405.107205281
 1153779.53607466 -428012.041741054 -277755.117286705
 1224957.74342959 -126123.970171926 -274081.560632802
 1227385.29918299 173294.600518834 -234614.022810777
 1169995.28339444 437813.071008026 -176011.882008651
 1071205.35920298 656010.214423325 -117128.595594892
 948239.065734905 829112.170633171 -70463.5625064443
 816700.783285745 960623.635287778 -41850.8402053984
 694959.856627965 1052394.75759668 -32334.2353802845
 609741.558344688 1103785.03106199 -37726.2262865487
 186595.578760106 -1247205.89208339 34770.4423124793
 228106.801782243 -1240696.86198101 13711.8405076719
 303092.934997506 -1224351.65404149 -25438.7680403205
 411013.732883051 -1189735.94606934 -84531.1831869512
 553009.192154702 -1121817.34359421 -165094.251633959
 726530.192129110 -997010.475383807 -263957.236723581
 916204.526965046 -786149.154592796 -366180.559861857
 1083857.73627421 -473269.742440685 -439109.996843184
 1176758.22033028 -91143.3449091451 -445513.650164447
 1169314.71904333 279211.350908617 -382483.385614806
 1084336.86916692 577541.985957738 -286719.792724933
 959653.465730220 795395.952559110 -194833.095965540
 822349.114634556 948541.952809978 -124737.838437853
 689464.166171909 1053408.88065195 -80736.1421386516
 575675.928791846 1120906.49279600 -60953.1815114930
 500176.261385395 1156630.07152178 -59833.2358894904
 94059.7898980569 -1257942.20348676 16840.4135980585
 119706.243073551 -1255868.59610276 -3730.36339362145
 170570.894164095 -1249125.56721417 -46263.5743851364
 251752.435478968 -1230686.68872275 -116535.043441878
 371444.122378184 -1185035.65452357 -221966.646993533
 536997.144423967 -1081178.49420148 -366383.080225724
 742536.342716690 -868236.869528682 -535120.499565201
 944431.508626140 -499862.700118918 -670623.469215722
 1058422.62902056 -17976.8046444691 -686270.940511795
 1040344.56521697 426879.874755594 -571844.549743294
 934975.149816521 740805.913058802 -410581.903305105
 800907.581137114 936813.031125499 -269217.053897976
 668552.301420660 1056519.30627433 -168387.073891380
 550377.815210577 1130196.20317378 -106255.511737336
 454614.598128590 1174386.67810854 -75438.2420827195
 393127.630526303 1196830.34626831 -67802.7970441478
 1127.60055365578 -1261552.20892607 -5846.67338796132
 10232.8625144706 -1261256.97728307 -25991.4735730348
 33682.0766043165 -1259071.92147640 -71783.3210732802
 79132.5972154176 -1249770.93148995 -152840.052929974
 157838.420245471 -1219128.47773799 -283482.307704761
 284091.174893496 -1132228.15036419 -478436.046707875
 465794.068550778 -917435.118650595 -729998.712114231
 671153.517995724 -487945.992962711 -950268.958849309
 800696.897628137 103996.977218966 -969339.227400268
 791960.265310484 608313.564768172 -770910.485080687
 701565.469025615 909127.545516273 -522343.210517165
 593258.552565437 1064709.22127412 -325557.974653938
 491960.745980997 1145245.86873106 -194771.546913854
 404407.110514458 1189286.53107251 -116627.041863422
 334525.999950604 1213992.67107654 -76574.0220208021
 289785.833133223 1226190.24673381 -63490.7918450344
 -93243.4068228483 -1257776.04479426 -29232.1594266068
 -101664.700688623 -1256532.24091876 -48378.1674367033
 -108760.583837929 -1253215.13437603 -95772.6124372921
 -106963.100184265 -1243513.23345501 -183801.970446952
 -87018.8418170629 -1213969.49379567 -332047.015076578
 -35637.7875682113 -1127495.43037427 -564830.446684079
 63843.8963706132 -898421.481922054 -883352.833603964
 212075.508311583 -410100.669662485 -1174048.91313596
 348347.870768103 264255.450444079 -1183373.24997690
 400473.275809800 785776.035516325 -902067.962123347
 386554.671712935 1049614.82863773 -583466.904116796
 347014.437236958 1161651.45831512 -348849.968700612
 300956.168881964 1208743.91564776 -199782.285789731
 255837.010032712 1230240.80548023 -112269.389184419
 216647.193162737 1241043.33858224 -66519.5939126606
 189993.673703709 1246191.21029669 -49591.3525807958
 -189993.772755094 -1246191.19885312 -49591.2606642720
 -216647.326047546 -1241043.32151965 -66519.4794543346
 -255837.200571200 -1230240.77748220 -112269.261789795
 -300956.444260653 -1208743.87491182 -199782.117418166
 -347014.831637366 -1161651.41268435 -348849.728323088
 -386555.233954047 -1049614.81228252 -583466.561045974
 -400474.059306620 -785776.150319479 -902067.514286226
 -348348.887028964 -264255.792979301 -1183372.87433062
 -212076.574849606 410100.260199708 -1174048.86350745
 -63844.7755706409 898421.250358570 -883353.005573327
 35637.1458505842 1127495.34954701 -564830.648517274
 87018.3921133529 1213969.47791395 -332047.190992934
 106962.783635010 1243513.24031088 -183802.108278257
 108760.365330856 1253215.14468610 -95772.7256658154
 101664.544777290 1256532.24952395 -48378.2715737847
 93243.2896659610 1257776.05130607 -29232.2529432972
 -289785.914752382 -1226190.23356006 -63490.6737404238
 -334526.110117478 -1213992.64882041 -76573.8935841049
 -404407.265953902 -1189286.49274488 -116626.893713373
 -491960.965621065 -1145245.80826638 -194771.347668051
 -593258.850009963 -1064709.14350246 -325557.686971240
 -701565.857817950 -909127.485855708 -522342.792163151
 -791960.770239624 -608313.630357541 -770909.914608474
 -800697.559876686 -103997.287124110 -969338.647118385
 -671154.298577667 487945.551223996 -950268.634366296
 -465794.809410462 917434.785222591 -729998.658429454
 -284091.772048418 1132227.96920119 -478436.120847797
 -157838.869135605 1219128.39294198 -283482.422438612
 -79132.9257551252 1249770.89671186 -152840.167208794
 -33682.3107638385 1259071.90900487 -71783.4299499773
 -10233.0326102780 1261256.97361417 -25991.5846415148
 -1127.73052022096 1261552.20835119 -5846.77236275970
 -393127.692902248 -1196830.33458491 -67802.6416129165
 -454614.685508230 -1174386.65495373 -75438.0759682446
 -550377.935987691 -1130196.16139624 -106255.330511423
 -668552.462714986 -1056519.23996501 -168386.849547223
 -800907.774182589 -936812.951302622 -269216.757362010
 -934975.368198981 -740805.862376448 -410581.497450655
 -1040344.81763478 -426879.951837782 -571844.032983102
 -1058422.97079038 17976.5151730215 -686270.420989031
 -944431.975515966 499862.279331551 -670623.125341969
 -742536.870095409 868236.500604673 -535120.366352860
 -536997.636551699 1081178.24710145 -366383.088107905
 -371444.531367677 1185035.51130952 -221966.727171833
 -251752.755831219 1230686.61347431 -116535.146052459
 -170571.133961696 1249125.53048842 -46263.6818681641
 -119706.420978985 1255868.57880088 -3730.47932824916
 -94059.9275500184 1257942.19477286 16840.2956708697
 -500176.301825140 -1156630.06492814 -59833.0252938028
 -575675.989455349 -1120906.47319647 -60952.9689991921
 -689464.250283954 -1053408.84242375 -80735.9226291747
 -822349.218987523 -948541.894685563 -124737.592472703
 -959653.573301702 -795395.893287195 -194832.808094774
 -1084336.96832159 -577541.972500734 -286719.444841239
 -1169314.82379846 -279211.453890421 -382482.990184576
 -1176758.38403128 91143.0811225578 -445513.271737819
 -1083858.00348019 473269.374729922 -439109.733612955
 -916204.884324190 786148.796562923 -366180.434379170
 -726530.572988246 997010.199559200 -263957.230261362
 -553009.548860807 1121817.15797029 -165094.318106906
 -411014.034850079 1189735.83442940 -84531.2862186532
 -303093.174515076 1224351.59221276 -25438.8900586112
 -228106.987405505 1240696.82936160 13711.7040445288
 -186595.723121928 1247205.87431494 34770.3049436255
 -609741.573951227 -1103785.03180634 -37725.9522703466
 -694959.885783180 -1052394.74649810 -32333.9699757042
 -816700.829251395 -960623.607546914 -41850.5799552439
 -948239.118521375 -829112.132166190 -70463.3047734346
 -1071205.40422319 -656010.188219107 -117128.330623834
 -1169995.31703698 -437813.094616603 -176011.599653927
 -1227385.33656693 -173294.720033503 -234613.738958193
 -1224957.82500770 126123.735111955 -274081.304201437
 -1153779.69657681 428011.725398646 -277754.938043140
 -1026133.29636568 692001.498168313 -244405.023560231
 -868870.023612615 895196.482819760 -187716.728432757
 -707382.321846209 1037208.64757493 -123927.006960545
 -558586.758893584 1129328.37881623 -64402.4573135417
 -432476.619155256 1185025.41934681 -15104.9761639019
 -336281.396242693 1215731.79034378 21458.5043172778
 -278949.699462960 1229569.95222546 43522.7374226823
 -717455.547254638 -1037692.16234293 -1394.57684046493
 -806714.735575340 -969886.772017921 8967.48511113545
 -925773.644699169 -857003.233967567 6168.19815687525
 -1043650.58490268 -708635.381121401 -13371.0199377451
 -1143297.84965941 -531221.302989277 -47152.7850025399
 -1214747.86847153 -328534.040338005 -89456.3094589761
 -1250368.61242248 -103716.857451715 -131797.486576845
 -1243463.49663240 135960.499333942 -163898.462721714
 -1191225.44244331 375747.726819263 -177045.254059118
 -1098358.88030088 597315.930007007 -168436.577806082
 -975810.113904265 786934.262018102 -141698.693653552
 -836457.836887776 938698.713598347 -103597.505359854
 -692704.061765265 1052605.47170269 -61092.0180908330
 -556723.075694767 1131904.03293347 -20052.6341627699
 -442349.898390601 1181378.62630326 14850.5766420042
 -368643.189947299 1205884.52552789 38654.1138405360
 -813699.501975904 -962998.915436243 45559.1952490291
 -901082.414286510 -881058.733185834 57753.1147170538
 -1009262.10705998 -754837.599529980 56210.5729165995
 -1108232.41176925 -601581.152129431 38346.7055390103
 -1185309.86970631 -431889.927651409 7812.43169697930
 -1235922.54863908 -251303.451346852 -29857.3278374930
 -1258163.90333752 -62447.2341472522 -68362.0231181323
 -1250576.19425125 131752.331997132 -101241.969085557
 -1212516.08695367 325910.662957200 -123030.116509338
 -1145199.97695730 512832.495160067 -130649.437824469
 -1051666.98715848 685720.204949451 -123829.639279292
 -936208.480875303 839137.226995227 -104459.683739103
 -804809.204174335 968544.884619612 -75844.4610529292
 -666973.974333072 1070005.20252050 -42237.6024456661
 -538715.139465200 1140727.84408441 -8684.19026049426
 -447925.900635283 1179239.23999993 17510.9481011740
 -881700.901685150 -897720.271552772 90836.4735652234
 -963199.442057151 -808431.089251759 101170.349761978
 -1059010.38776635 -678804.550376613 96285.0554859492
 -1142853.27469854 -528965.340692402 75043.2660266015
 -1205274.24723883 -370278.599610461 41918.7133908107
 -1244329.89258713 -207814.617385227 2373.63310009493
 -1260251.48859282 -43036.5131534457 -38255.3911773115
 -1253271.39729865 123409.168671628 -75036.0761222293
 -1223382.40733621 290017.557679283 -103801.409320708
 -1170629.78316019 454293.692876338 -121624.760267216
 -1095117.04972755 613294.954830917 -127032.974829112
 -997080.835986066 763543.618076612 -119918.225148460
 -878026.563155866 900179.952757719 -101463.480941481
 -743558.446460770 1016445.27066384 -74224.5199439938
 -607937.002156834 1104609.23431566 -42431.9666298548
 -501604.585804308 1157474.46963293 -13968.6279575871
 513148.538441223 -1152414.77728457 12968.7898724660
 626229.369354588 -1095104.40012709 -11513.5007267350
 766987.594508577 -1000651.08095176 -44462.0622438677
 902501.713555467 -878232.999194512 -75808.2256368672
 1019019.21748791 -737054.627069612 -99497.4473268606
 1112275.04053438 -584666.267925553 -112067.034730089
 1182139.31308132 -426104.772189235 -111941.049236377
 1229527.95686698 -264585.696137459 -99019.4102230970
 1255185.47716651 -102461.556261908 -74568.6148297938
 1259529.33627121 58600.0147146623 -41247.0637330093
 1242581.34968689 218019.603710859 -2910.79491137077
 1203681.55676346 376053.415369696 35832.5217536421
 1141740.91849864 532045.947047591 70030.1090608557
 1057426.00711435 681471.031270856 94852.0107103723
 958899.501016761 812777.484770812 107023.072831951
 873187.485532067 904066.385663011 108429.776091993
 457537.070975367 -1175300.43505409 29633.5445721461
 553547.810599267 -1133619.37149780 6432.17417667330
 686927.695006059 -1057779.91682489 -27953.8962318266
 826977.594163773 -950509.511874414 -64723.7012717423
 957355.585910081 -815806.357844921 -97363.7486209571
 1069159.03520738 -658679.757131071 -120786.447497742
 1157439.72414219 -484411.308806561 -131256.999039764
 1219139.67820495 -298682.409583146 -126636.069707226
 1252382.87526887 -107906.487344897 -106970.812098983
 1256680.23749068 81657.8598354900 -75074.6664754715
 1232730.43445997 265740.415573769 -36154.3691104070
 1181461.48445107 442363.969600318 3508.57194398146
 1103873.32904700 609580.726511092 37741.7832627476
 1003417.33510444 762197.738095995 61300.0046672829
 891908.641413254 889359.319049234 71333.0772615312
 800772.911023830 972268.133557968 70759.1150105702
 376455.282489356 -1203351.51719499 42142.3453229322
 454287.402192821 -1176761.57117712 20114.4656556319
 573583.590672429 -1123515.23834556 -16272.8189194683
 712901.231851734 -1039044.40153346 -60893.3180670022
 857402.633513763 -919118.195395833 -107851.276556771
 994479.128696315 -761551.599137320 -150332.482710036
 1111985.42273920 -567807.558223693 -180644.477796958
 1198248.13400404 -345067.388611680 -191518.504566834
 1244181.27709113 -107265.974491664 -179042.987495178
 1246512.99362859 128421.363220055 -145817.492444301
 1208222.00379548 348792.355931570 -100463.490418592
 1135258.15814338 547615.334510810 -53439.5985806848
 1034285.74607010 722231.139811039 -13587.0188935851
 914419.152930928 869029.970087381 13189.1911034902
 792288.083506626 981434.132229137 24820.7120766608
 700338.663098913 1049018.65295322 25200.2707127480
 286311.278851824 -1227885.07127983 43284.3418491671
 347230.717648082 -1212645.50610288 21705.6713565302
 448127.330169090 -1179162.06643347 -17554.1436368799
 578240.143105427 -1118939.04102978 -71855.3427361799
 729061.075978323 -1020326.57806439 -137670.085740148
 889190.135852682 -870454.140879355 -207845.908901828
 1040788.22763263 -660019.368975937 -269599.200141394
 1159437.57627658 -392302.557634591 -305536.644136512
 1221558.28228986 -91581.9244716094 -301591.685890191
 1217802.87176079 203566.120232592 -258971.873267308
 1157233.67101446 463166.916616105 -194514.958143811
 1056900.92987970 676863.031197579 -127930.810739295
 932888.070990622 846145.396160865 -72850.8509087114
 800118.081932728 974720.421703564 -35785.2678804061
 676607.664221465 1064633.59465596 -17515.9574578104
 589996.109423422 1115023.23856486 -13311.6206567290
 194824.597112142 -1245975.72883049 33723.7371057244
 239650.238826119 -1238538.12296361 11853.7721980882
 319185.869487888 -1220117.66194558 -31348.0884052187
 431469.783312364 -1181493.22433027 -97247.1998002375
 576182.205468604 -1106676.02111776 -186632.476550196
 748391.589032431 -971868.018956878 -294842.354680087
 930134.996922598 -750241.857689359 -404395.194567853
 1083794.85031000 -431430.347432608 -480422.739547836
 1163116.87622475 -51653.2280488706 -485840.001638662
 1148530.32898756 312397.830669127 -418132.885226589
 1061727.26615332 604834.397238944 -313783.357019057
 937336.332927874 817545.757813004 -211113.627637441
 800860.302711957 966016.105098351 -130326.862732425
 668689.242281312 1067002.84765290 -76870.3536924845
 555016.845400373 1131877.17586034 -48577.6801339254
 479407.511265937 1166272.90789501 -39056.0286112511
 104092.021124827 -1257152.79663845 16766.8709430617
 132872.547071671 -1254535.82254926 -5846.97308788262
 188234.467036466 -1246289.78334446 -53656.2416655309
 274097.533684650 -1224292.97341473 -132388.399016913
 396962.934193624 -1171311.08935536 -248998.376999745
 560653.782660023 -1054977.49501456 -405264.422224250
 754168.309721541 -827074.421556224 -582003.000626410
 933366.365355407 -452023.711524642 -718367.053226745
 1027061.75182226 21340.5720925063 -732282.847570196
 1002966.93850939 455486.208241855 -614930.130403047
 900193.433073005 763818.977493343 -444726.639175365
 770363.248039085 955866.621316156 -290532.096752253
 641910.311862199 1071480.31284196 -177286.552327081
 526893.346276243 1141448.73124784 -105012.506405096
 433138.174002902 1183039.74612823 -66012.9700985831
 372645.688892604 1204188.92325812 -51123.9530080398
 13494.6748769199 -1261488.45650251 -3768.12683439606
 25566.9965781579 -1261016.38419530 -27082.0677930633
 53546.0386952749 -1257944.75787409 -79102.7104218746
 104165.674900829 -1245742.73447510 -169776.272175787
 186941.553097300 -1207731.33937663 -313029.229517061
 311867.642527062 -1106165.98096655 -520273.800047502
 478887.528968984 -872313.868944818 -775425.482921123
 652571.622256324 -438898.961870775 -986441.792511580
 753824.081404500 130466.738092081 -1003133.64785816
 740509.155282854 619407.057210478 -812114.843688429
 657319.863138762 919757.238204834 -559934.506180865
 556986.372563635 1076287.42533783 -350600.898112127
 462306.724840029 1155471.71976140 -206656.787738192
 379896.691514547 1197200.28575732 -118065.280577522
 313475.227848864 1219980.97100406 -70207.8544897934
 270571.004380752 1231156.29480108 -50940.5563282177
 -78364.0060971562 -1258897.97315989 -24174.5039508280
 -84034.1136111501 -1257867.11683125 -47518.5759802300
 -86593.5954700329 -1254465.96775071 -101814.124254950
 -79019.6752069098 -1243093.90673452 -200057.144058012
 -53304.0753817207 -1207532.21329145 -361350.329085371
 473.947623464197 -1106970.63475021 -605115.873278265
 91139.7072957439 -859037.715340709 -919400.450454106
 210777.083061689 -374950.447763826 -1185974.12024743
 313042.043261393 260969.758739189 -1193921.64529055
 352697.875913437 768794.093551529 -936007.094505905
 342078.401521471 1042934.02817488 -621948.881345076
 309863.124626795 1163549.17441750 -376414.125170426
 271032.828787264 1213349.12008713 -214183.448058725
 231904.455924587 1234609.79429295 -116225.685961410
 196986.378501616 1244494.29283733 -63085.2811604628
 172736.799945046 1249012.57511817 -40975.7984714538
 -172736.895652871 -1249012.56567642 -40975.6828079723
 -196986.509085070 -1244494.27875404 -63085.1512314975
 -231904.642951398 -1234609.77308528 -116225.538066504
 -271033.096730715 -1213349.09436589 -214183.254707267
 -309863.508025137 -1163549.15709249 -376413.863111687
 -342078.939497116 -1042934.06039285 -621948.531426804
 -352698.603749005 -768794.264972553 -936006.679451471
 -313042.952849240 -260970.130432781 -1193921.32555386
 -210778.026832240 374950.031303382 -1185974.08418112
 -91140.5055955770 859037.447185872 -919400.621867919
 -474.546591276831 1106970.51750041 -605116.087300082
 53303.6443333625 1207532.17271612 -361350.528261994
 79019.3745433378 1243093.89966950 -200057.306715346
 86593.3837215861 1254465.97141233 -101814.259232725
 84033.9678996667 1257867.12180850 -47518.7019097314
 78363.8947134140 1258897.97805503 -24174.6100949756
 -270571.084124605 -1231156.28289364 -50940.4205528109
 -313475.333939608 -1219980.95244495 -70207.7032946342
 -379896.846481181 -1197200.25361647 -118065.107856941
 -462306.944851505 -1155471.67160809 -206656.564793471
 -556986.670896893 -1076287.37148561 -350600.589478619
 -657320.253676243 -919757.217871327 -559934.081119867
 -740509.656630950 -619407.166497051 -812114.303190974
 -753824.710501959 -130467.063306963 -1003133.13281321
 -652572.335438981 438898.530300025 -986441.512731062
 -478888.207237917 872313.524476702 -775425.451544145
 -311868.202700522 1106165.77892009 -520273.893838046
 -186941.975632415 1207731.23879993 -313029.365223768
 -104165.985746270 1245742.68972720 -169776.409797458
 -53546.2613525224 1257944.74022053 -79102.8404395965
 -25567.1539476895 1261016.37825421 -27082.1958600065
 -13494.7937811743 1261488.45486814 -3768.24815482964
 -372645.749222731 -1204188.91225793 -51123.7723592779
 -433138.257276871 -1183039.72595885 -66012.7851656306
 -526893.470166862 -1141448.69279368 -105012.302774836
 -641910.475772197 -1071480.25555213 -177286.305096596
 -770363.448811868 -955866.558055677 -290531.772521408
 -900193.663347860 -763818.951298053 -444726.218054723
 -1002967.20805014 -455486.304390025 -614929.619556728
 -1027062.09995939 -21340.8591209952 -732282.350926153
 -933366.810616885 452023.308439453 -718366.728339550
 -754168.802683305 827074.054706815 -582002.883162114
 -560654.242182886 1054977.24159158 -405264.446213962
 -396963.317746973 1171310.93884852 -248998.473521554
 -274097.835952224 1224292.89216289 -132388.524595973
 -188234.689547189 1246289.74416437 -53656.3711103716
 -132872.708781592 1254535.80477333 -5847.11225481616
 -104092.147514837 1257152.78803536 16766.7313342406
 -479407.551170881 -1166272.89931134 -39055.7951040204
 -555016.903727657 -1131877.15744094 -48577.4429023985
 -668689.325392470 -1067002.81293482 -76870.1126206190
 -800860.410243318 -966016.052232544 -130326.593805367
 -937336.448427729 -817545.706246367 -211113.314516100
 -1061727.37796791 -604834.390603780 -313782.991469094
 -1148530.44859067 -312397.935219352 -418132.478587527
 -1163117.04634201 51652.9743662474 -485839.621343013
 -1083795.10682651 431429.992555347 -480422.479554787
 -930135.330839306 750241.505220484 -404395.080444744
 -748391.947575304 971867.740032858 -294842.363996123
 -576182.538710298 1106675.83346862 -186632.560451922
 -431470.066373612 1181493.11081524 -97247.3230409938
 -319186.090358209 1220117.60038573 -31348.2355128395
 -239650.405755796 1238538.09215929 11853.6159234009
 -194824.728213369 1245975.71281841 33723.5713143701
 -589996.123016255 -1115023.23494508 -13311.3213976205
 -676607.694569533 -1064633.58022381 -17515.6623650533
 -800118.129939454 -974720.392739079 -35784.9834388622
 -932888.129003069 -846145.356416267 -72850.5696566315
 -1056900.98169684 -676863.004528804 -127930.523751923
 -1157233.71387832 -463166.936577781 -194514.655600778
 -1217802.91666377 -203566.231639489 -258971.574541018
 -1221558.36400394 91581.7022408465 -301591.422400629
 -1159437.72568721 392302.256036668 -305536.464404447
 -1040788.45006203 660019.049782582 -269599.122885302
 -889190.403391454 870453.861828250 -207845.932997939
 -729061.356532608 1020326.36542640 -137670.175947937
 -578240.398452241 1118938.90018425 -71855.4811493438
 -448127.544224996 1179161.98253315 -17554.3149772706
 -347230.887624405 1212645.46083504 21705.4812128972
 -286311.415335681 1227885.04638684 43284.1452153496
 -700338.649510316 -1049018.65309666 25200.6423783507
 -792288.082218110 -981434.124456367 24821.0605467829
 -914419.167575810 -869029.949793935 13189.5128820635
 -1034285.76431498 -722231.119088295 -13586.7315714178
 -1135258.17100996 -547615.333617468 -53439.3343998841
 -1208222.01229193 -348792.397609496 -100463.243537159
 -1246513.00783224 -128421.475096084 -145817.272495855
 -1244181.31983576 107265.784603456 -179042.804223174
 -1198248.22439659 345067.137413238 -191518.391615043
 -1111985.57029570 567807.281134450 -180644.440445297
 -994479.323777266 761551.335739237 -150332.526527860
 -857402.856320101 919117.974863868 -107851.384669963
 -712901.456985452 1039044.23752064 -60893.4809493329
 -573583.791383493 1123515.13289643 -16273.0247283307
 -454287.569939759 1176761.51025042 20114.2414802566
 -376455.424918982 1203351.48110682 42142.1034837821
 -800772.865520421 -972268.139324960 70759.5507246021
 -891908.608414613 -889359.320132077 71333.4763562794
 -1003417.31700609 -762197.733904757 61300.3530309176
 -1103873.32064327 -609580.723678042 37742.0748117934
 -1181461.47617857 -442363.989731884 3508.81937321450
 -1232730.42895416 -265740.469831551 -36154.1580339163
 -1256680.24087694 -81657.9667045819 -75074.4935521440
 -1252382.90033626 107906.325595997 -106970.681780854
 -1219139.73674499 298682.202262373 -126635.995119950
 -1157439.82355687 484411.073310966 -131256.991498749
 -1069159.17642932 658679.516271079 -120786.510922508
 -957355.758569049 815806.139801941 -97363.8778761956
 -826977.781083931 950509.336708279 -64723.8854121057
 -686927.877495952 1057779.79210159 -27954.1313473467
 -553547.975838804 1133619.29233660 6431.90531559730
 -457537.216660550 1175300.38571664 29633.2519949932
 -873187.414732578 -904066.396118168 108430.259067741
 -958899.444579576 -812777.495408508 107023.497706840
 -1057425.96949600 -681471.038752130 94852.3763355145
 -1141740.89340457 -532045.961994469 70030.4046258938
 -1203681.54006294 -376053.446102807 35832.7602183906
 -1242581.33924634 -218019.665828388 -2910.59921802096
 -1259529.33662811 -58600.1139197552 -41246.9118929550
 -1255185.49519940 102461.415582282 -74568.5045905531
 -1229527.99978930 264585.517709772 -99019.3540239625
 -1182139.38637771 426104.567873288 -111941.052929709
 -1112275.14795932 584666.049721903 -112067.106920884
 -1019019.35541007 737054.417867304 -99497.5844978063
 -902501.874153401 878232.816745876 -75808.4273623773
 -766987.758667447 1000650.94356477 -44462.3224333723
 -626229.529869585 1095104.30516247 -11513.8027125842
 -513148.689141333 1152414.71391848 12968.4577217496
 535269.257940363 -1141413.98182973 47014.6201360031
 652184.538727971 -1079642.57125258 24014.0938253953
 796274.810220215 -978457.495566652 -10806.7986539978
 931732.435793377 -849236.602701009 -47130.5807554227
 1044693.28374788 -702977.705096723 -77380.3589289519
 1132121.26326732 -548141.476473104 -96911.2890578395
 1195338.06458681 -389887.185358231 -103461.707709894
 1236469.51190386 -231031.058244961 -96525.7850389739
 1257083.14981203 -73188.6517227214 -77037.6962052961
 1257951.32827032 82896.4646145098 -47287.0254540923
 1238949.55507318 237568.248925815 -10712.5162886051
 1198826.50414997 391856.097350397 28517.4128529284
 1135561.19614478 545623.944012383 65914.4327864063
 1048771.73668043 694405.448733649 97099.6808865899
 946194.097751722 825933.763784168 118741.644506363
 856540.173185750 917061.030048956 129951.644096669
 477415.884455928 -1166644.27168960 50642.3490959330
 577422.380136669 -1121306.98204491 28345.6849201996
 715205.937347250 -1039215.02361087 -7876.09063259987
 856890.030248833 -924592.322043167 -49172.6041402425
 985151.265688739 -783155.518518164 -87714.5851348248
 1091648.01525717 -621376.662609953 -117239.433927992
 1172775.42575542 -445410.778501367 -133253.405427185
 1227054.62767820 -261059.294882423 -133170.628022730
 1253970.45921283 -74065.3541455594 -116712.645655116
 1253745.61854976 110534.322967163 -86333.7612549863
 1226956.90345294 289708.195002083 -46854.5594020730