# OOMMF OVF 2.0
#
# Segment count: 1
#
# Begin: Segment
# Begin: Header
#
# Title: Oxs_MinDriver::Magnetization
# Desc: Oxs vector field output
# Desc:  MIF source file: C:/Users/grl31/Documents/GitHub/phd-work/Skyrmions/stdprob3/drive-150/stdprob3.mif
# Desc:  Iteration: 482, State id: 1025
# Desc:  Stage: 0, Stage iteration: 482
# Desc:  Stage simulation time: -1 s
# Desc:  Total simulation time: -2 s
# meshunit: m
# meshtype: rectangular
# xbase: 3.1249999999999999e-09
# ybase: 3.1249999999999999e-09
# zbase: 3.1249999999999999e-09
# xnodes: 16
# ynodes: 16
# znodes: 16
# xstepsize: 6.2499999999999997e-09
# ystepsize: 6.2499999999999997e-09
# zstepsize: 6.2499999999999997e-09
# xmin: 0
# ymin: 0
# zmin: 0
# xmax: 9.9999999999999995e-08
# ymax: 9.9999999999999995e-08
# zmax: 9.9999999999999995e-08
# valuedim: 3
# valuelabels: Magnetization_x Magnetization_y Magnetization_z
# valueunits: A/m A/m A/m
#
# End: Header
#
# Begin: Data Text
 502313.617247919 -1157225.05574380 -7786.60420293438
 609556.851653231 -1103917.38390630 -36827.7752656182
 745867.139849868 -1015102.39475745 -69273.1460871928
 880538.487514157 -898208.003709087 -97076.1814152795
 999357.389670522 -761182.703392557 -115910.011154660
 1096896.13228496 -610895.709264035 -123185.787735609
 1171836.89275249 -452199.332181419 -117743.329653225
 1224082.61218820 -288483.970939310 -99740.6034098160
 1253606.50764148 -122565.365218128 -70695.7294807846
 1260379.60107242 43207.5394094507 -33552.9530394616
 1244363.38354288 207490.750232803 7535.85990456452
 1205206.84374520 369801.657189207 47672.0992698390
 1142482.62750977 528804.932135269 81536.6206482599
 1057902.95160241 679450.611355749 103622.597140644
 960813.131026906 810208.212265760 109317.020368966
 877854.823463343 900562.209275732 99539.1735223380
 447945.223352087 -1179129.93569504 23390.2232312728
 539322.358647154 -1140469.47699036 -3193.18579977277
 668171.110009175 -1069444.71644018 -37212.8626452560
 806359.907253443 -967603.224437122 -71253.9890255793
 937808.205423032 -837872.024664694 -100178.196452488
 1053058.07124882 -684320.815225952 -119679.368920281
 1146241.17096368 -511555.044314980 -126459.659744414
 1213197.00548101 -324988.712091590 -118679.374045836
 1250983.74485871 -131321.429485208 -96663.2462531523
 1258420.09791836 62399.9660908225 -63517.9683708951
 1236103.79873780 250971.126585654 -24704.7219223432
 1185352.96309826 431636.055523458 13345.3874160492
 1107858.67754810 601857.117312172 44346.2720079959
 1007986.77423628 756027.620631912 62724.2435214224
 898405.596064662 883304.961258287 64723.7305410462
 809589.338613103 966088.422641086 52798.6113625221
 368067.094351838 -1205879.51261919 43939.1171925698
 442036.787706996 -1181420.86348711 19941.2273947652
 556756.119340445 -1131963.84842611 -15162.4652436251
 693081.937664920 -1052619.79483743 -56377.5320318251
 837105.121930557 -938618.972867195 -98989.2394672922
 976599.020256068 -786772.087674897 -137089.265114112
 1099160.76314885 -597151.780891301 -163721.709774020
 1191959.74621869 -375686.196542561 -172166.419607956
 1244106.20443564 -136068.472533383 -158853.875577918
 1250923.87283572 103463.342830712 -126626.347885908
 1215183.74895234 328310.334785383 -84203.3922962941
 1143448.12543029 531343.723422193 -41828.9725997856
 1043163.68107098 709433.375933159 -7953.01989684431
 924190.885510748 858652.263015477 11701.6783503768
 803698.075240759 972319.745276570 14599.5793966683
 713151.184829888 1040647.15687465 4279.41390787776
 278130.166631233 -1229583.79433230 48132.4635149879
 335475.375122084 -1215865.03621339 26036.8454204698
 431733.650965770 -1185346.36024627 -10463.8326455514
 558013.132462479 -1129874.22149638 -59623.9760189804
 707106.809777116 -1037978.14704133 -118956.953350491
 869000.797542494 -896142.567115051 -182525.461768789
 1026720.03497013 -693015.908903292 -239007.009765039
 1154766.50039127 -428912.013961357 -272209.927762873
 1226138.94024080 -126732.495439651 -268461.551704813
 1228478.95679410 173027.055617096 -229020.788701615
 1170757.87561611 437922.387716619 -170585.491582329
 1071382.26903581 656622.663490063 -111964.915513058
 947514.932749560 830340.159717668 -65575.1652349263
 814783.369705686 962441.806069965 -37192.2209445181
 691740.342718367 1054642.02307252 -27837.6066559796
 605480.097081198 1106269.82527755 -33322.0143129226
 185905.790903977 -1247190.80546639 38775.7989913586
 227272.342437387 -1240797.87337840 17814.3397752592
 302096.952281572 -1224681.13375545 -21047.1604877934
 409964.004426056 -1190431.66015191 -79695.7244893382
 552136.867069861 -1123022.23954461 -159735.282356253
 726181.752725778 -998790.137397935 -258123.525397599
 916765.671455467 -788305.836752720 -360088.936655036
 1085474.15101026 -475161.127983823 -433032.563279784
 1178943.39396780 -92044.1536256316 -439510.840050581
 1171213.29429093 279310.261890701 -376556.274410205
 1085430.62159715 578253.326082735 -281092.311336377
 959753.626695421 796509.020578952 -189725.557319775
 821359.363421942 949983.796037396 -120204.052778743
 687346.616042083 1055093.58998178 -76691.4383344168
 572509.893670721 1122722.10222209 -57244.5084711579
 496240.643684497 1158501.43712350 -56294.5348798717
 93794.6268071136 -1257909.77658199 20371.3740460685
 119216.761666476 -1255920.69599198 -5.97743225942106
 169789.813977292 -1249380.12647664 -42073.1452795918
 250745.420581276 -1231345.81792333 -111640.681022689
 370448.097896027 -1186404.11294910 -216247.354808401
 536506.800458930 -1083566.05428205 -359992.347124091
 743326.749917895 -871520.387835233 -528646.372694430
 947054.104735076 -502742.513179469 -664746.507373592
 1062008.29204255 -18715.6355178102 -680689.021168252
 1043136.92185733 427917.420691088 -565951.830323096
 936292.625521547 742342.403457258 -404763.271977861
 800886.576773729 938311.242669132 -264011.617061296
 667423.683821632 1057926.80700109 -163969.290482708
 548313.932076148 1131543.40093132 -102522.166475992
 451778.213624228 1175686.04506934 -72167.8601779235
 389751.228162373 1198102.68423391 -64756.2282439036
 1485.62820477047 -1261562.58194941 -2660.00994709997
 10336.9823921106 -1261322.40657399 -22546.9374502889
 33441.0498772636 -1259301.59424864 -67754.1277332587
 78564.5872735734 -1250397.87381250 -147926.311759132
 157115.188548493 -1220588.03765094 -277541.151524893
 283684.742857623 -1135113.00127070 -471795.370828279
 466673.963944735 -921816.752293976 -723891.371329462
 674326.818952846 -491630.833081161 -946114.103120661
 805104.246113527 104223.312067653 -965657.333131465
 795096.636059361 610912.820077646 -765608.448562853
 702849.431920645 911550.684686341 -516359.812742669
 593181.422203345 1066400.87042965 -320116.252037688
 490942.311172025 1146439.44935483 -190267.356588073
 402680.438331812 1190226.04972829 -112959.488543626
 332243.887294973 1214811.02928134 -73468.3156912036
 287118.771713245 1226961.19602698 -60650.3527843372
 -92146.4831922575 -1257922.08034291 -26277.2970454877
 -100835.911929417 -1256719.73838067 -45133.6786529361
 -108303.174776759 -1253545.36020377 -91890.6043283747
 -106910.293019376 -1244224.11900203 -178957.989089851
 -87332.6896234329 -1215554.31668149 -326113.684838720
 -36128.1765264695 -1130705.71791984 -558344.665276934
 63746.7559682569 -903401.465513321 -878266.231919947
 213393.574093789 -413698.859740911 -1172546.74401642
 350947.044123734 266310.811715659 -1182143.88071128
 402531.293739707 790059.444254475 -897398.497337443
 387470.770538366 1052692.37971257 -577282.068483382
 347036.310400110 1163349.11249881 -343123.990171288
 300321.712813700 1209666.55389164 -195097.739934422
 254679.739239369 1230816.99526859 -108522.741846733
 215062.970674442 1241482.16050010 -63398.6965452261
 188107.802421303 1246586.67391175 -46760.5604416793
 -188107.830087988 -1246586.66929744 -46760.5721570005
 -215063.003975409 -1241482.15453135 -63398.7004617132
 -254679.779465678 -1230816.98709607 -108522.740133161
 -300321.754456751 -1209666.54380837 -195097.738351001
 -347036.352560126 -1163349.10197288 -343123.983218340
 -387470.818057029 -1052692.36816126 -577282.057653106
 -402531.348557137 -790059.439600463 -897398.476846227
 -350947.109965694 -266310.820491222 -1182143.85918761
 -213393.639069956 413698.849326952 -1172546.73586557
 -63746.8140979012 903401.462146716 -878266.231163703
 36128.1297839438 1130705.72275853 -558344.658502590
 87332.6508288902 1215554.32135863 -326113.677794270
 106910.253359820 1244224.12295480 -178957.985300638
 108303.143007536 1253545.36330588 -91890.5994538103
 100835.885367114 1256719.74074847 -45133.6720674419
 92146.4605191162 1257922.08225051 -26277.2852344451
 -287118.807792130 -1226961.18717812 -60650.3610000723
 -332243.930372428 -1214811.01750394 -73468.3156243925
 -402680.484398039 -1190226.03418927 -112959.488056523
 -490942.356430503 -1146439.43007280 -190267.355990901
 -593181.463402392 -1066400.85114869 -320116.239925600
 -702849.469604637 -911550.668399937 -516359.790199685
 -795096.674255530 -610912.813546625 -765608.414106909
 -805104.291913602 -104223.319874864 -965657.294103614
 -674326.864955210 491630.820138698 -946114.077058566
 -466674.008736286 921816.745955779 -723891.350524688
 -283684.779973794 1135113.00071670 -471795.349843664
 -157115.226492251 1220588.03616137 -277541.136595970
 -78564.6253239897 1250397.87310002 -147926.297572814
 -33441.0769367682 1259301.59420787 -67754.1151353263
 -10337.0044478496 1261322.40667302 -22546.9217982024
 -1485.64488852436 1261562.58195117 -2659.99979426778
 -389751.272744865 -1198102.66931664 -64756.2359085682
 -451778.262726255 -1175686.02603141 -72167.8629409470
 -548313.982957901 -1131543.37626769 -102522.166561768
 -667423.729021948 -1057926.77900701 -163969.287115756
 -800886.608582017 -938311.219265322 -264011.603748346
 -936292.649401558 -742342.386930780 -404763.247048788
 -1043136.93943050 -427917.419512413 -565951.798824211
 -1062008.31361414 18715.6236689853 -680688.987838124
 -947054.133572814 502742.498366276 -664746.477492010
 -743326.779585456 871520.379661948 -528646.344453418
 -536506.829194171 1083566.04874199 -359992.320974533
 -370448.129520743 1186404.10803981 -216247.327566843
 -250745.453332963 1231345.81346831 -111640.656599053
 -169789.836991733 1249380.12405927 -42073.1241877626
 -119216.777204242 1255920.69451717 -5.95865347204561
 -93794.6384857370 1257909.77550901 20371.3865298715
 -496240.694654185 -1158501.41484192 -56294.5441170972
 -572509.946015993 -1122722.07546757 -57244.5096888664
 -687346.661875043 -1055093.56005846 -76691.4392312666
 -821359.398928426 -949983.765994409 -120204.047593947
 -959753.645826089 -796509.000375740 -189725.545362037
 -1085430.63193425 -578253.316833145 -281092.290447885
 -1171213.29975961 -279310.267371423 -376556.253335501
 -1178943.40253864 92044.1398212205 -439510.819951169
 -1085474.16735151 475161.111613066 -433032.540280908
 -916765.689689943 788305.826256708 -360088.913208954
 -726181.769016879 998790.133606032 -258123.494238155
 -552136.886843636 1123022.23406365 -159735.252540739
 -409964.026903223 1190431.65416631 -79695.6982722679
 -302096.968263505 1224681.13027113 -21047.1338376332
 -227272.352748277 1240797.87110843 17814.3663374255
 -185905.800944197 1247190.80329848 38775.8205835926
 -605480.146251197 -1106269.79803274 -33322.0253762304
 -691740.389828786 -1054641.99203594 -27837.6118398563
 -814783.406441082 -962441.774945631 -37192.2215889813
 -947514.956553199 -830340.132930528 -65575.1604790617
 -1071382.27995220 -656622.646409759 -111964.911223242
 -1170757.87680315 -437922.388351737 -170585.481805020
 -1228478.95555553 -173027.071959686 -229020.782998395
 -1226138.94405247 126732.473423544 -268461.544689007
 -1154766.50877262 428911.998569645 -272209.916459770
 -1026720.04645767 693015.899203005 -239006.988543764
 -869000.806891790 896142.563604496 -182525.434492660
 -707106.817705921 1037978.14469501 -118956.926693120
 -558013.143305327 1129874.21765032 -59623.9474250771
 -431733.659836756 1185346.35728405 -10463.8021939425
 -335475.381956243 1215865.03372669 26036.8734887085
 -278130.172805591 1229583.79160710 48132.4974542372
 -713151.235723877 -1040647.12206794 4279.39670717838
 -803698.119061166 -972319.709248113 14599.5665744919
 -924190.914856340 -858652.231554054 11701.6692483282
 -1043163.69523427 -709433.355021639 -7953.02752951311
 -1143448.13115183 -531343.710655667 -41828.9783644090
 -1215183.74862210 -328310.335443396 -84203.3944966036
 -1250923.87096837 -103463.360040375 -126626.352271637
 -1244106.20678811 136068.452643706 -158853.874190686
 -1191959.75285666 375686.177886294 -172166.414361292
 -1099160.77313133 597151.767323626 -163721.692241913
 -976599.024543990 786772.086240770 -137089.242798360
 -837105.120943388 938618.976734476 -98989.2111456352
 -693081.936100988 1052619.79759298 -56377.4998094391
 -556756.117172134 1131963.84994400 -15162.4315441236
 -442036.786453110 1181420.86334825 19941.2634163510
 -368067.094065672 1205879.51118777 43939.1588740034
 -809589.391473780 -966088.379467314 52798.5907983103
 -898405.638508765 -883304.919618294 64723.7096644669
 -1007986.80202308 -756027.584945112 62724.2271239805
 -1107858.68954116 -601857.096443053 44346.2556282139
 -1185352.96704962 -431636.045163483 13345.3715285828
 -1236103.79964568 -250971.121134001 -24704.7318790650
 -1258420.09726159 -62399.9721650717 -63517.9754155526
 -1250983.74625431 131321.414767565 -96663.2481862613
 -1213197.00986974 324988.696637803 -118679.371500483
 -1146241.17652811 511555.035222062 -126459.646090648
 -1053058.07135658 684320.818163077 -119679.351177736
 -937808.202715532 837872.031237530 -100178.166824480
 -806359.903787341 967603.229997534 -71253.9527420207
 -668171.104921594 1069444.72104822 -37212.8215659230
 -539322.349196838 1140469.48159935 -3193.13580431487
 -447945.215227384 1179129.93778055 23390.2736940637
 -877854.875578854 -900562.161784397 99539.1435747883
 -960813.173462570 -810208.165767538 109316.992015609
 -1057902.97760301 -679450.573778346 103622.578089555
 -1142482.63886090 -528804.910207512 81536.6038096203
 -1205206.84853972 -369801.643889131 47672.0812300875
 -1244363.38536385 -207490.739738211 7535.84817073867
 -1260379.60105223 -43207.5337783230 -33552.9610493632
 -1253606.50792185 122565.362332623 -70695.7295119170
 -1224082.61402550 288483.963687319 -99740.6018364562
 -1171836.89502177 452199.328518129 -117743.321137281
 -1096896.13264251 610895.711502416 -123185.773451340
 -999357.389317425 761182.708064332 -115909.983519388
 -880538.486395831 898208.008879109 -97076.1437229542
 -745867.133907938 1015102.40232611 -69273.0991559228
 -609556.842628610 1103917.39077995 -36827.7185986541
 -502313.607178905 1157225.06050671 -7786.54590345309
 513641.665173050 -1152090.53133556 20225.6847636815
 627778.004855929 -1094267.40186718 -4802.16085793449
 769317.766019222 -999108.145991785 -38503.4858033285
 905050.961976974 -876043.505075192 -70568.8625321393
 1021308.17764289 -734501.788658658 -94795.3567214533
 1114037.66064199 -582132.104196011 -107664.919331212
 1183316.26447920 -423946.061632064 -107618.706387912
 1230202.81642555 -263059.061829028 -94606.5080595618
 1255514.49577236 -101692.338244782 -69938.9030992972
 1259680.49783669 58631.1314591224 -36288.6306255653
 1242674.98232957 217490.286195438 2508.90848488399
 1203719.22160538 375306.527608674 41886.4750368590
 1141523.94860228 531560.520355070 76915.0107993671
 1056505.74324592 681757.396417447 102722.431033532
 956681.507366969 814174.134804954 115889.613838437
 869430.673596740 906478.361521829 118053.864065403
 457343.527995587 -1175191.29634205 36218.0248134098
 554067.313476071 -1133312.93680034 12674.0024200897
 688141.701628223 -1057126.49742933 -22226.0619984647
 828595.272875740 -949439.986464344 -59523.2457911935
 959029.173670777 -814396.953407776 -92574.7117059181
 1070609.56398153 -657143.044345799 -116222.251303967
 1158523.63805650 -483023.457023793 -126731.018097685
 1219854.14637390 -297690.222406191 -122007.475087026
 1252824.38134436 -107453.050229569 -102148.629087451
 1256978.55961155 81581.7517349889 -69991.0664275697
 1232966.71455013 265326.703130455 -30728.6891411687
 1181573.96106393 441977.622914246 9390.75597147847
 1103579.37998740 609678.195933770 44209.5056354290
 1002217.37444502 763168.699403189 68434.6515351244
 889274.960013271 891338.168413565 79093.2736805076
 796665.975264505 975008.441216565 78938.5478157012
 375665.174304716 -1203383.97932139 47875.9443371314
 453865.196112179 -1176815.87872012 25694.4015145580
 573611.547818666 -1123565.77070976 -10917.0516817459
 713354.592305281 -1039020.67039381 -55773.6770378391
 858178.114586130 -918960.507975548 -102914.232959645
 995418.717875522 -761267.993638427 -145471.814739933
 1112932.89893750 -567488.653288063 -175745.332145229
 1199104.39426083 -344841.165441303 -186501.080963134
 1244917.42036151 -107227.586994777 -173874.356897980
 1247138.66533094 128276.390624872 -140498.213382824
 1208710.47093817 348631.640081997 -94996.8836178939
 1135443.26343383 547752.953244278 -47798.8352773371
 1033813.32096671 722993.650165486 -7722.05485174248
 912829.718185448 870585.174940132 19307.7624516748
 789247.565336522 983700.396693771 31164.7408756278
 696012.937164567 1051718.25198282 31688.1786271198
 285291.012983738 -1227939.55080571 48196.7674925277
 346314.205007014 -1212809.76651035 26615.2697979810
 447369.497272851 -1179513.07943729 -12603.9384778173
 577746.273191177 -1119505.66120028 -66826.2618525686
 728956.955989391 -1021080.40249546 -132536.783095620
 889562.734456191 -871310.492253768 -202597.133430544
 1041637.55892299 -660844.444229527 -264244.673155162
 1160644.74198483 -392930.913835670 -300097.502112553
 1222883.21913840 -91896.1788347389 -296076.266499411
 1218972.05795985 203563.261772032 -253413.794590618
 1158019.50719822 463485.159937102 -189002.006299991
 1057059.05532950 677614.031228284 -122534.930315473
 932116.536506963 847431.517149076 -67587.1069926276
 798146.229553430 976511.021481051 -30630.9009764944
 673349.768358662 1066768.43900504 -12434.5451482265
 585729.901214592 1117318.99164398 -8257.39994120041
 193956.163726577 -1245989.48521242 37955.7665120651
 238716.628140422 -1238669.19817979 16199.3780388916
 318177.893582350 -1220490.52854454 -26741.8901262799
 430506.799806508 -1182243.50805576 -92269.2467689719
 575513.094723082 -1107917.09602503 -181256.219359975
 748357.410857553 -973596.738925888 -289171.240766452
 931048.953331017 -752174.541667251 -398661.179810416
 1085668.31347486 -432916.775494181 -474822.924395324
 1165396.55856428 -52091.4849579450 -480298.625232644
 1150416.43715302 312916.869353854 -412522.102342269
 1062751.36147183 605880.215674094 -308250.123866057
 937335.486302659 818879.699763044 -205882.622755536
 799767.607680933 967559.047196752 -125501.772142807
 666498.275889964 1068683.34699768 -72425.0164273265
 551826.789955739 1133606.94964927 -44406.1765182340
 475498.750169437 1168000.13853026 -35014.9382341817
 103671.105087529 -1257132.38809298 20491.2590274432
 132298.814540332 -1254608.60839166 -1922.06652314170
 187451.091539639 -1246587.76274084 -49299.7868590047
 273188.640411471 -1225023.38367116 -127417.059799469
 396194.031304320 -1172752.15742463 -243376.452709934
 560518.989221651 -1057338.41600252 -399253.513054267
 755319.973673726 -830057.814257513 -576233.627340956
 936089.626250432 -454307.188901532 -713365.699103670
 1030431.75480910 21194.7104603051 -727537.362510342
 1005480.64977413 457011.766675825 -609670.680751980
 901270.555192094 765743.747963301 -439200.785197163
 770144.489586241 957613.659728876 -285312.065604614
 640639.624696366 1072996.00122136 -172655.389579447
 524757.922291626 1142797.17537502 -100961.229519120
 430302.280115974 1184271.18381289 -62379.0175968826
 369327.523953097 1205351.47740325 -47690.9518822299
 13716.5905119149 -1261491.62968885 -392.795932285399
 25600.7435662272 -1261088.50700011 -23448.0353128087
 53315.0946200831 -1258210.52700223 -74921.3010123216
 103711.277000411 -1246447.11396352 -164811.996025472
 186467.741074479 -1209286.67577488 -307253.882401620
 311840.634449721 -1109025.28812737 -514167.054486143
 480081.109090827 -876252.986287597 -770228.708654217
 655521.596798861 -441766.055868479 -983200.701246512
 757475.380983691 131172.427049175 -1000287.09504052
 742986.883942689 622307.977498049 -807621.633161453
 658174.475665447 922494.497142714 -554400.300543640
 556634.118540398 1078202.20448530 -345235.999337766
 461130.074741675 1156763.71402117 -202005.433124059
 378111.682236941 1198145.03925472 -114146.623183533
 311217.172912148 1220749.47048825 -66813.4156152236
 267987.555930748 1231847.14936917 -47798.5499389900
 -77386.5145658722 -1259015.15994564 -21013.9313157748
 -83262.6858267180 -1258043.89381345 -44071.7291078950
 -86111.6215844433 -1254821.05958296 -97766.7017657588
 -78833.5379279507 -1243884.85290259 -195154.238837449
 -53339.5017154008 -1209238.16432609 -355594.418422145
 421.266183876328 -1110183.16651931 -599201.627360026
 91492.1534321049 -863525.651309054 -915151.389831532
 212041.048181518 -377794.026787665 -1184845.85416357
 314892.508469047 262911.840597725 -1193008.59305478
 354002.589759782 772913.964912984 -932113.512510580
 342491.407416232 1046149.09977906 -616296.298704176
 309584.742482901 1165414.72053502 -370830.483241381
 270246.088467507 1214358.32641903 -209404.722114234
 230705.930565921 1235199.40714630 -112279.246105806
 195444.936135419 1244902.88114205 -59728.7567440338
 170954.003264410 1249354.86569836 -37902.2326871132
 -170954.029143497 -1249354.86198395 -37902.2383986423
 -195444.964557207 -1244902.87654992 -59728.7594539609
 -230705.964098444 -1235199.40090380 -112279.245879437
 -270246.124780718 -1214358.31855641 -209404.720846518
 -309584.786235127 -1165414.71014324 -370830.479373596
 -342491.455781809 -1046149.09348375 -616296.282512355
 -354002.642947142 -772913.971824150 -932113.486580046
 -314892.569562049 -262911.861725156 -1193008.57227338
 -212041.107725363 377794.003336722 -1184845.85098500
 -91492.2066833712 863525.643240590 -915151.392121045
 -421.311359809016 1110183.16739450 -599201.625706750
 53339.4601294623 1209238.16732908 -355594.414448064
 78833.5023950328 1243884.85593367 -195154.233871487
 86111.5926916960 1254821.06180629 -97766.6986780339
 83262.6607768183 1258043.89573128 -44071.7216884029
 77386.4960087056 1259015.16119205 -21013.9249786259
 -267987.586175016 -1231847.14260338 -47798.5547367536
 -311217.207146978 -1220749.46148517 -66813.4206448528
 -378111.723113442 -1198145.02647347 -114146.621938695
 -461130.113640966 -1156763.69842995 -202005.433607839
 -556634.158466670 -1078202.18738007 -345235.988384583
 -658174.512378112 -922494.485463058 -554400.276393362
 -742986.923347317 -622307.980809380 -807621.594358889
 -757475.426014571 -131172.445051684 -1000287.05857977
 -655521.644459934 441766.037724684 -983200.677622087
 -480081.154328728 876252.976037039 -770228.692119153
 -311840.672065766 1109025.28481943 -514167.038807146
 -186467.778978773 1209286.67431431 -307253.865146571
 -103711.309559977 1246447.11319383 -164811.981357755
 -53315.1205435926 1258210.52663719 -74921.2886950870
 -25600.7616441493 1261088.50684363 -23448.0239913632
 -13716.6047530123 1261491.62953724 -392.785530919741
 -369327.559735833 -1205351.46611734 -47690.9600165096
 -430302.320800683 -1184271.16887709 -62379.0205036031
 -524757.962071748 -1142797.15692157 -100961.231634900
 -640639.663136733 -1072995.97874937 -172655.386602021
 -770144.520090034 -957613.638205592 -285312.055505712
 -901270.576554308 -765743.736509093 -439200.761330752
 -1005480.66865258 -457011.768708302 -609670.648093729
 -1030431.77896563 -21194.7264740011 -727537.327830238
 -936089.658558333 454307.172658214 -713365.667053299
 -755320.006020020 830057.802434021 -576233.601973432
 -560519.019632343 1057338.41028363 -399253.485505445
 -396194.065329147 1172752.15087829 -243376.428865371
 -273188.670393447 1225023.37941820 -127417.036405726
 -187451.111097430 1246587.76064273 -49299.7655475037
 -132298.828231408 1254608.60697833 -1922.04668169132
 -103671.114722061 1257132.38714352 20491.2685327136
 -475498.791131370 -1168000.12158883 -35014.9470945413
 -551826.830360489 -1133606.92965858 -44406.1847415457
 -666498.313829996 -1068683.32340462 -72425.0154130780
 -799767.639166176 -967559.022051711 -125501.765357508
 -937335.507608426 -818879.677851635 -205882.612906021
 -1062751.37074262 -605880.206980247 -308250.108991410
 -1150416.44308207 -312916.875748193 -412522.080957288
 -1165396.56934686 52091.4691833697 -480298.600780635
 -1085668.33070644 432916.760358209 -474822.898795954
 -931048.972236908 752174.532731971 -398661.152515506
 -748357.428259242 973596.733805437 -289171.212971751
 -575513.117019001 1107917.08925803 -181256.189930262
 -430506.820193417 1182243.50266434 -92269.2207285694
 -318177.910736678 1220490.52465282 -26741.8636387720
 -238716.638950403 1238669.19582392 16199.3988809466
 -193956.170730691 1245989.48346542 37955.7880700036
 -585729.944752305 -1117318.96871306 -8257.41445037318
 -673349.806333472 -1066768.41496958 -12434.5507728454
 -798146.261341102 -976510.995376955 -30630.9048851698
 -932116.555136973 -847431.496949740 -67587.1033264455
 -1057059.06563095 -677614.015794695 -122534.926796252
 -1158019.51035482 -463485.154734537 -189001.999717559
 -1218972.05785603 -203563.271405530 -253413.787351575
 -1222883.22167242 91896.1644674148 -296076.260492493
 -1160644.75016908 392930.900300829 -300097.488181229
 -1041637.56963812 660844.436474430 -264244.650311293
 -889562.741009911 871310.491582301 -202597.107542276
 -728956.963732205 1021080.40045845 -132536.756203269
 -577746.284365159 1119505.65698425 -66826.2358769257
 -447369.504962897 1179513.07682792 -12603.9097164373
 -346314.212632537 1212809.76364005 26615.3013703314
 -285291.022999972 1227939.54714627 48196.8014373547
 -696012.983857623 -1051718.22154750 31688.1631769448
 -789247.605047064 -983700.365201417 31164.7292467642
 -912829.744370051 -870585.147684512 19307.7534528405
 -1033813.33573332 -722993.628966826 -7722.06269618628
 -1135443.26960104 -547752.939700700 -47798.8439807694
 -1208710.47051926 -348631.640305319 -94996.8881284530
 -1247138.66370813 -128276.399120365 -140498.220031351
 -1244917.42168146 107227.570481665 -173874.357630850
 -1199104.39919443 344841.150838325 -186501.076243600
 -1112932.90568260 567488.645091648 -175745.315897430
 -995418.720620568 761267.994067893 -145471.793708991
 -858178.113643943 918960.512039731 -102914.204525674
 -713354.594222420 1039020.67081569 -55773.6446579040
 -573611.549868610 1123565.77001887 -10917.0150772719
 -453865.197221424 1176815.87736817 25694.4438408773
 -375665.177238130 1203383.97651569 47875.9918421845
 -796666.025500479 -975008.401721267 78938.5286483328
 -889275.001033838 -891338.129159698 79093.2548407892
 -1002217.39966901 -763168.667661432 68434.6361101187
 -1103579.39088469 -609678.177252390 44209.4912404657
 -1181573.96619803 -441977.609511490 9390.74078631932
 -1232966.71557729 -265326.696994266 -30728.7009099107
 -1256978.55866016 -81581.7559259040 -69991.0786288679
 -1252824.38189881 107453.039179346 -102148.633911261
 -1219854.14932557 297690.209396132 -122007.477319345
 -1158523.64362056 483023.446449365 -126731.007536720
 -1070609.56574981 657143.045247036 -116222.229919243
 -959029.173026733 814396.957586702 -92574.6816150978
 -828595.272125582 949439.989634916 -59523.2056607925
 -688141.696957343 1057126.50148102 -22226.0139054765
 -554067.309356786 1133312.93822288 12674.0552988670
 -457343.524143672 1175191.29599784 36218.0846223317
 -869430.720861068 -906478.319430127 118053.839179803
 -956681.546857032 -814174.091569347 115889.591592246
 -1056505.76878796 -681757.359609423 102722.412623048
 -1141523.96019933 -531560.497992357 76914.9932321297
 -1203719.22575960 -375306.515931424 41886.4602834581
 -1242674.98422070 -217490.275543577 2508.89517789869
 -1259680.49764303 -58631.1280743536 -36288.6428168785
 -1255514.49561369 101692.336678220 -69938.9082254783
 -1230202.81804390 263059.053396307 -94606.5104632951
 -1183316.26739630 423946.054725722 -107618.701519419
 -1114037.66244640 582132.103415521 -107664.904880537
 -1021308.17844908 734501.791493166 -94795.3260730703
 -905050.963989210 876043.506214692 -70568.8225792692
 -769317.765863356 999108.148137199 -38503.4332472447
 -627777.998732311 1094267.40567368 -4802.09400116103
 -513641.661664802 1152090.53169952 20225.7531256283
 535472.023498366 -1140933.09590193 55595.0865199332
 653531.201332183 -1078619.52762762 32036.1424744079
 798487.540621677 -976705.547982619 -3653.89256445426
 934200.655522223 -846845.590709736 -40879.2323347718
 1046905.90982046 -700266.906401459 -71858.9361240358
 1133809.12295977 -545516.254169866 -91860.3290252474
 1196454.27831304 -387710.205945363 -98627.5166024665
 1237111.61590847 -229553.709526704 -91702.6452498029
 1257416.36619110 -72528.5856234615 -72063.2862225165
 1258147.37222111 82763.1336526784 -42010.5272528302
 1239129.36028228 236819.096572366 -4957.30814275871
 1198990.01880431 390831.340284713 34974.6933918270
 1135502.10242128 544800.702614787 73325.3076791970
 1048018.85701008 694290.912245303 105669.463156747
 944115.240210024 826850.633464357 128506.319150909
 852878.634521625 918896.175736687 140631.731525904
 476955.281000052 -1166479.93645664 58203.5109699732
 577768.843308392 -1120922.17495398 35581.9099750906
 716356.650366028 -1038451.30219249 -1213.82454824070
 858514.929376198 -923384.379086346 -43160.5771098959
 986857.494611860 -781597.868986007 -82258.6618167927
 1093131.38892965 -619707.082974443 -112144.231982742
 1173889.16204309 -443926.482501390 -128308.005559528
 1227804.38580727 -260018.885278232 -128202.965683572
 1254462.64560890 -73615.9487406130 -111595.670981889
 1254115.86185067 110402.093835705 -80958.0981137727
 1227286.48073299 289186.335415783 -41092.4389368820
 1174008.71547429 461788.629762732 2056.29064815360