# OOMMF OVF 2.0
#
# Segment count: 1
#
# Begin: Segment
# Begin: Header
#
# Title: Oxs_MinDriver::Magnetization
# Desc: Oxs vector field output
# Desc:  MIF source file: C:/Users/grl31/Documents/GitHub/phd-work/Skyrmions/stdprob3/drive-0/stdprob3.mif
# Desc:  Iteration: 2108, State id: 4836
# Desc:  Stage: 0, Stage iteration: 2108
# Desc:  Stage simulation time: -1 s
# Desc:  Total simulation time: -2 s
# meshunit: m
# meshtype: rectangular
# xbase: 3.1249999999999999e-09
# ybase: 3.1249999999999999e-09
# zbase: 3.1249999999999999e-09
# xnodes: 16
# ynodes: 16
# znodes: 16
# xstepsize: 6.2499999999999997e-09
# ystepsize: 6.2499999999999997e-09
# zstepsize: 6.2499999999999997e-09
# xmin: 0
# ymin: 0
# zmin: 0
# xmax: 9.9999999999999995e-08
# ymax: 9.9999999999999995e-08
# zmax: 9.9999999999999995e-08
# valuedim: 3
# valuelabels: Magnetization_x Magnetization_y Magnetization_z
# valueunits: A/m A/m A/m
#
# End: Header
#
# Begin: Data Text
 967976.030784779 294451.534182505 -753571.581711165
 1013894.67783983 274523.805771901 -698715.745658801
 1074367.54364047 263351.391276160 -606572.218951555
 1133451.25892339 266114.724735618 -485819.542466981
 1181042.22746200 281430.161631859 -342761.946537851
 1210440.73189023 305189.267528115 -182324.371617317
 1217029.10536315 332121.892089503 -9199.80504232331
 1197859.42488482 356943.479644986 171095.240940535
 1151856.47792800 375438.929363061 351883.070767796
 1080059.24179484 385244.204442854 525935.707169318
 985526.044771789 385981.126562691 686517.600599448
 873108.610835651 378790.644690959 828099.288792232
 749589.538088245 365686.227228491 946540.299471183
 624457.315355922 349119.741319946 1039094.74949983
 511437.990814805 331980.375418466 1104431.81899440
 431978.601191799 318510.992498305 1141706.90927623
 952939.164739764 302545.293984404 -769365.143681415
 1000645.71942408 288033.590647699 -712245.902603733
 1063250.31100839 279274.426575483 -618913.565629690
 1123930.06020587 282410.049053314 -498573.179060292
 1172879.03850478 296915.073775831 -357415.208014098
 1204029.68778139 319147.311651168 -200017.337563135
 1213338.57000311 344134.313271881 -30504.4241162080
 1198146.88602752 366834.177833817 146376.761798094
 1157236.11675140 383226.515000800 324794.456857628
 1091057.03487540 391062.801133175 498210.661405118
 1001791.33517558 390004.595141565 660196.915665730
 893374.426453669 381218.030406521 805049.301825984
 771868.865524365 366824.912610876 928012.590885009
 646440.980822033 349585.695251111 1025403.98424650
 531160.450091146 332987.756924600 1094777.21976494
 449154.142784356 321702.890763459 1134159.26439501
 928138.022410389 311789.518880621 -795547.948392350
 978152.980703699 302328.299035307 -737132.129853149
 1043939.81784808 297697.954196208 -642740.239675141
 1107640.07146114 302888.191050968 -522438.175035471
 1159398.37350379 317660.308303209 -382670.577604856
 1193654.32331082 338835.194524332 -227880.447410476
 1206977.10608910 361862.985553074 -61732.2928648120
 1197107.62471183 382084.536221743 111777.336504233
 1162796.68888222 395804.685397488 287735.889768536
 1103962.09151618 401004.642428388 460448.051537897
 1021866.46503075 397487.047095684 623973.081114608
 919391.833319200 386540.352029652 772563.682810490
 801715.658891471 370480.039325279 900858.464837128
 677621.546369743 352380.573014006 1004094.81752310
 561669.902865894 336046.520414437 1078493.89764195
 478537.450654822 325868.094047032 1120875.24931274
 896215.111941683 321210.296868609 -827751.079269541
 949185.327232162 315825.587686840 -768668.227292106
 1018960.83126680 315560.309724352 -673565.101671474
 1086710.85122334 323678.462582440 -553029.121848634
 1142335.44967229 339588.253762099 -413882.796511010
 1180575.50135211 360316.403308497 -260697.153864380
 1198520.25287193 381706.342339288 -96947.9375371866
 1194343.30610054 399542.107296155 73889.1236186218
 1166904.70426669 410537.861415987 247672.175310857
 1115793.39225449 412987.969857212 419518.144391152
 1041553.03611487 406909.034985502 584073.403885175
 946141.646027240 393761.090777473 735742.903439479
 833875.684397625 376049.917063154 868784.918012589
 713062.133219073 357059.452806340 977548.143187668
 598465.796342781 340696.714867418 1057030.68546060
 515625.196990169 331047.688512915 1102763.58077244
 859257.004097382 330129.580889482 -862694.205179495
 915710.732196982 328059.928442286 -803367.891571888
 990149.261332991 331789.186088788 -707862.844903746
 1062744.64434374 342959.752450902 -586942.808147840
 1123028.64107410 360342.099336254 -447783.065436987
 1165868.17347875 380951.472561430 -295257.190499321
 1188751.68135052 400942.985047616 -132904.453448235
 1190268.49346458 416545.208637393 36061.5244510615
 1169490.50419001 424917.784170982 208053.522497371
 1125884.60238106 424715.944694316 378879.478677065
 1059531.41928277 416214.681131565 543790.347176312
 971688.544853129 401066.593483975 697507.269002498
 865917.110696069 381940.747576869 834181.187550491
 749953.177340836 362243.158380752 947575.620687698
 638401.306293475 345882.364381948 1031677.56254137
 557042.122613639 336678.552980113 1080694.71013615
 818975.454730164 337812.772848315 -898171.011539010
 879261.617119500 338489.683187730 -838971.497701099
 958883.115144565 345661.998022568 -743377.687002142
 1036956.09637970 359597.875933101 -622061.775649593
 1102536.84688028 378388.201695195 -482477.254394576
 1150468.10708198 398930.304215593 -329889.645009671
 1178511.85596875 417619.383313333 -168087.140915141
 1185623.43200436 431099.115471108 -247.065143387558
 1171142.41228761 436974.312723041 170377.026269231
 1134577.53663575 434281.439041588 340121.854611655
 1075782.41181758 423583.139737762 504795.955880002
 995550.945193531 406741.310675367 659537.150305656
 896834.263038117 386569.710080733 798624.814795990
 786757.297550941 366535.387633324 915540.384298685
 679482.141610221 350471.589167238 1003505.41370654
 600545.382145056 341888.491874217 1055465.26898197
 776672.326594437 343572.370674239 -932892.037767833
 840966.412090197 346544.983836014 -874203.350962001
 926127.192046906 356580.161404047 -778902.075721545
 1010175.94950892 372813.135768823 -657346.444236916
 1081596.86673407 392724.621573276 -517170.204478289
 1135070.81566284 413070.705423952 -364055.307158133
 1168504.67841412 430439.965616115 -202157.570829470
 1181146.23128955 441850.850294631 -34797.0878573396
 1172616.55128844 445332.303270723 134903.647937871
 1142578.41996109 440306.917026952 303634.326083850
 1090848.39206713 427649.334541895 467670.036574269
 1017971.11209207 409452.894566058 622601.455986459
 926449.074326418 388670.186592149 763005.261877729
 822819.682012012 368780.037238425 882336.945813237
 720631.445947889 353451.957900750 973299.267176410
 644815.574778723 345775.385618260 1027716.73536159
 733226.872361162 346906.744204202 -966221.245570631
 801547.394532938 351791.332004633 -908467.976300110
 892438.901279948 364125.948128456 -813949.956877415
 982837.073037025 382124.212396079 -692504.010879102
 1060576.74713711 402766.244589484 -551820.393398342
 1120047.17385446 422688.067052579 -397968.035438699
 1159165.66264350 438644.550240359 -235532.070027941
 1177377.41822886 447987.455566761 -68110.8333418933
 1174562.03894204 449140.551498447 101124.737799148
 1150600.24925061 441911.672775853 269040.091450769
 1105412.24615081 427512.391921832 432257.274932484
 1039474.10197850 408296.319467983 586802.469101699
 955001.497498792 387357.856343721 727650.645449323
 858016.930617709 368141.146882063 848427.058541085
 761379.594858668 354048.148822763 941541.529496697
 689164.738733919 347600.560437162 997885.386298714
 689164.764172938 347600.654832537 -997885.335848465
 761379.616377383 354048.237882347 -941541.478606433
 858016.950616562 368141.225313719 -848427.004283882
 955001.516457666 387357.919260572 -727650.587073653
 1039474.11870660 408296.367873477 -586802.405788708
 1105412.26114510 427512.422502722 -432257.206342351
 1150600.26050700 441911.686408017 -269040.020919207
 1174562.04526286 449140.550721512 -101124.667833583
 1177377.41792480 447987.445902603 68110.9021621319
 1159165.65760313 438644.527176193 235532.137787694
 1120047.16431378 422688.029171802 397968.102523888
 1060576.73579821 402766.187694310 551820.456718264
 982837.058847818 382124.141031585 692504.070396122
 892438.887644162 364125.862652707 813950.010066236
 801547.379426167 351791.232957381 908468.027983553
 733226.855638067 346906.639426276 966221.295880004
 644815.606234417 345775.469091780 -1027716.68754081
 720631.474649652 353452.036416184 -973299.217412854
 822819.707712767 368780.108018389 -882336.892263027
 926449.099052014 388670.239446888 -763005.204931764
 1017971.13511309 409452.933711973 -622601.392602186
 1090848.41273829 427649.357071367 -467669.967756904
 1142578.43675149 440306.922257016 -303634.255317201
 1172616.56356934 445332.292329139 -134903.577308607
 1181146.23695269 441850.829859388 34797.1551138168
 1168504.67882153 430439.933278367 202157.637329038
 1135070.81282479 413070.658055059 364055.369753259
 1081596.86041328 392724.557503787 517170.266350023
 1010175.94047195 372813.057148314 657346.502713972
 926127.182699156 356580.067935689 778902.129625833
 840966.403437706 346544.874309089 874203.402703342
 776672.315274359 343572.254498460 932892.089978346
 600545.421106788 341888.563165248 -1055465.22372053
 679482.177508292 350471.658514221 -1003505.36518039
 786757.329919593 366535.446037747 -915540.333100981
 896834.296446833 386569.752883793 -798624.756560321
 995550.977309242 406741.337616510 -659537.085213181
 1075782.43919289 423583.154281381 -504795.885336032
 1134577.55955144 434281.435135051 -340121.783157592
 1171142.42966933 436974.293758076 -170376.955430612
 1185623.44273192 431099.085929234 247.132423674346
 1178511.86211374 417619.340195709 168087.204958231
 1150468.10900425 398930.249816203 329889.704090202
 1102536.84585469 378388.129658377 482477.313233869
 1036956.09214999 359597.789252146 622061.832808406
 958883.111295495 345661.896398578 743377.739221027
 879261.612176003 338489.565948746 838971.550182984
 818975.450379938 337812.647634005 898171.062600234
 557042.168382228 336678.614932059 -1080694.66724437
 638401.350741272 345882.422366626 -1031677.51559703
 749953.220013371 362243.205939437 -947575.568733834
 865917.154921366 381940.778430669 -834181.127515851
 971688.587266682 401066.610815516 -697507.199951075
 1059531.45618550 416214.684272567 -543790.272870220
 1125884.63228636 424715.931944371 -378879.404102403
 1169490.52669651 424917.757602113 -208053.450248864
 1190268.50903035 416545.169952167 -36061.4575293421
 1188751.69193312 400942.933089193 132904.515539993
 1165868.18074611 380951.405271876 295257.248622420
 1123028.64333051 360342.020076021 447783.123560634
 1062744.64411501 342959.659752567 586942.862727052
 990149.260587680 331789.078877985 707862.896198072
 915710.732158215 328059.807105150 803367.941164789
 859257.005338014 330129.450209565 862694.253951441
 515625.248239308 331047.745341958 -1102763.53974962
 598465.847796545 340696.764270569 -1057030.64040532
 713062.187619243 357059.492293509 -977548.089082944
 833875.739636876 376049.940403224 -868784.854890288
 946141.698312205 393761.100537113 -735742.830979447
 1041553.08128204 406909.029910594 -584073.326876055
 1115793.42970174 412987.949005566 -419518.065319655
 1166904.73204856 410537.827789983 -247672.100154840
 1194343.32658452 399542.059316565 -73889.0519566229
 1198520.26726968 381706.280444225 96948.0032398410
 1180575.51136338 360316.326756638 260697.214332373
 1142335.45452031 339588.165444983 413882.855593873
 1086710.85277675 323678.364355362 553029.176286773
 1018960.83212490 315560.197243651 673565.153069722
 949185.330331532 315825.462521871 768668.274891855
 896215.116086433 321210.164029203 827751.126330534
 478537.509488004 325868.145612238 -1120875.20920360
 561669.963219527 336046.565669445 -1078493.85210937
 677621.610423632 352380.607386279 -1004094.76223308
 801715.723833127 370480.058529873 -900858.399144605
 919391.893621865 386540.356338526 -772563.608891230
 1021866.51869062 397487.034983459 -623973.000952869
 1103962.13584061 401004.615258560 -460447.968928653
 1162796.72435297 395804.642734016 -287735.805111492
 1197107.65016751 382084.479679651 -111777.257155969
 1206977.12344689 361862.915240750 61732.3656462407
 1193654.33447625 338835.110844853 227880.513348038
 1159398.37878907 317660.214688306 382670.639302798
 1107640.07308073 302888.086397332 522438.232275578
 1043939.81873928 297697.837500408 642740.292277627
 978152.983060595 302328.172499002 737132.178623364
 928138.026495797 311789.385618591 795547.995853815
 449154.207551198 321702.939994259 -1134159.22478154
 531160.517925718 332987.799488329 -1094777.17390698
 646441.053082187 349585.725576162 -1025403.92835328
 771868.937575472 366824.929631218 -928012.524229128
 893374.494445136 381218.030244973 -805049.226451397
 1001791.39601429 390004.578125082 -660196.833400592
 1091057.08769949 391062.768404179 -498210.571413044
 1157236.15891543 383226.465962025 -324794.364489095
 1198146.91602156 366834.115045401 -146376.673639747
 1213338.58980892 344134.236247407 30504.5052717887
 1204029.69869662 319147.224217814 200017.411365971
 1172879.04276115 296914.976102015 357415.275186961
 1123930.06020587 282409.943164668 498573.239039465
 1063250.31025544 279274.308871867 618913.620034985
 1000645.71881002 288033.465663862 712245.954010122
 952939.164726473 302545.165179613 769365.194349086
 431978.669391861 318511.041237308 -1141706.86987480
 511438.062907745 331980.414215826 -1104431.77394768
 624457.391187877 349119.771190684 -1039094.69389154
 749589.614673928 365686.241537293 -946540.233292951
 873108.683820915 378790.643343520 -828099.212456373
 985526.110765006 385981.108900582 -686517.515793467
 1080059.30035393 385244.168388818 -525935.613321948
 1151856.52452462 375438.878293872 -351882.972725960
 1197859.45816116 356943.413183582 -171095.146622170
 1217029.12663053 332121.811707020 9199.89349612377
 1210440.74262990 305189.176656434 182324.452425580
 1181042.23030098 281430.064126648 342762.016813856
 1133451.25803763 266114.616390867 485819.603880915
 1074367.54141344 263351.272782473 606572.274341688
 1013894.67510374 274523.682941283 698715.797888950
 967976.027645138 294451.408182411 753571.634977518
 916142.697140634 300383.363008875 -813634.945551331
 965724.673775014 284549.306894469 -760234.817228844
 1033020.95028547 278109.747359156 -668634.515721464
 1100803.16778850 285925.988547177 -545919.541488562
 1157740.82228672 306366.173593437 -396642.643959957
 1195447.85103491 334657.437990915 -224629.173466691
 1207322.97824004 364301.078168210 -34718.6056462764
 1188759.44398359 388513.900663959 165702.638028636
 1138223.62168872 402062.385859994 366527.292060693
 1058008.19630107 402765.767333353 556729.579008598
 953743.415356859 391671.845893235 726991.123547580
 833133.627271025 371950.365402234 871258.122318710
 705120.892517642 347513.011027095 986705.966851808
 580146.969300020 322165.055139097 1072934.57497565
 471676.792363063 299545.346710441 1131080.46562973
 399718.968831373 284211.965013364 1162324.28169534
 899913.579664233 303304.801710608 -830488.517268088
 951449.839216216 293744.450074495 -774601.079540186
 1020970.07803258 290925.837857439 -681565.614998328
 1090279.28859640 300543.857558227 -559029.420925850
 1148386.02020519 321739.577432094 -411391.083799912
 1187581.10309665 350086.385388028 -242157.133392016
 1201916.48174415 379275.034881116 -55647.5493319631
 1187160.66980607 402699.177165090 141535.676403907
 1141639.70249424 415281.043054872 340220.334323333
 1066944.28206166 414907.168484012 530123.920829339
 967703.997777883 402612.995083770 702140.427402762
 850717.359917671 381577.478698918 849840.003885107
 724385.440045255 355850.464982036 969631.688705287
 599091.707900567 329576.562379831 1060197.07883659
 488902.063172402 306942.899635507 1121744.29345911
 415623.150717945 292789.647121437 1154591.29134285
 874027.693882182 308896.452824045 -855691.534770955
 927444.256654677 305221.735026407 -798896.910861894
 999844.536968243 307739.939140671 -705093.229772779
 1071897.96073915 320798.669798071 -582814.212367888
 1132542.17032730 343713.719529058 -436759.135401644
 1174633.66068280 372408.749020051 -270364.416599536
 1192959.33299872 400920.844857062 -87521.0654031075
 1183796.95107242 423008.587445496 106009.171763406
 1145405.39254287 433913.854851598 302183.196456217
 1078608.51056587 431693.123306192 491725.695021081
 986822.881931744 417419.213482273 665951.372722304
 875657.095617477 394322.321761057 818097.786560194
 752749.247683832 366650.947585376 943655.172012067
 628398.459903408 338915.457534744 1040096.68740651
 517434.587304550 315666.329637905 1106420.19464255
 443212.802176052 301602.136647951 1141992.99213069
 841388.458615300 315849.120920030 -885355.423229546
 896926.574294015 316882.235475911 -828648.176299172
 972675.985016904 324750.541993048 -734838.720105011
 1048348.96701393 341877.688991592 -612889.484368554
 1112585.54163857 367085.393141520 -467922.170449199
 1158557.19763567 396397.077280652 -303585.256310152
 1181658.54187381 424203.158576498 -123629.290984543
 1178685.71199356 444734.663109054 66786.9949200667
 1147959.46801853 453674.025164764 260611.530052641
 1089730.76886222 449343.074005642 449585.458124550
 1006362.10099710 432907.410040438 625600.453107043
 902316.291953612 407660.253496416 781785.045849097
 784394.821854918 378012.116335151 912897.055680411
 662653.404545873 348735.435298271 1015294.78110056
 552388.714702878 324591.684100678 1086764.17745551
 477961.492720290 310207.892558577 1125554.66583810
 804314.101726071 322912.176523671 -916709.323033361
 862244.183020997 327679.412268971 -860645.456933613
 941774.591050540 340273.764260630 -767348.562210448
 1021739.48083634 361334.279121442 -645782.783102050
 1090358.68032124 388900.397104383 -501421.838673907
 1140897.98937177 418882.635969428 -338287.667599202
 1169181.77444795 445961.490926355 -160255.289549013
 1172466.04733642 464863.928839893 27826.7214347583
 1149234.62361948 471769.553767022 219642.206626173
 1099407.98564082 465331.655072388 407820.993593697
 1024577.33034115 446860.929703702 584898.311310855
 928252.864713386 419721.413473876 744130.354939131
 816418.684371281 388430.362333515 879847.609729022
 698704.323628966 357913.755154230 987552.248203882
 590491.427270717 333045.238377005 1063931.47074102
 516663.433740034 318407.652345448 1105994.97923036
 764622.166040175 329026.075318396 -947968.467766496
 825133.920543388 336766.201649889 -892912.072666709
 908797.685718086 353299.021471596 -800509.836778798
 993590.295477036 377773.526698850 -679422.488719886
 1067220.69584935 407420.179908648 -535348.684758816
 1122866.30955226 437936.157115968 -372736.641721650
 1156599.55747795 464222.496014747 -195766.107267337
 1166040.21190866 481471.076844174 -9233.48761102675
 1149886.65513214 486361.267546386 181005.051583254
 1107936.17040362 477915.266533712 368271.464064644
 1041297.03738823 457641.282421339 545723.709828696
 952770.627046229 428998.800950961 706921.206316183
 847612.165543852 396576.317895868 846067.533844179
 734903.075658821 365361.265833497 958111.708379928
 629793.728413444 340232.087295115 1038822.12979165
 557279.722466891 325642.951224991 1083948.98872763
 723601.367472751 333343.182575942 -978178.314286644
 786782.665356443 343435.602696394 -924431.963539843
 874823.957339646 363117.637499690 -833293.499266734
 964868.133747475 390339.906855756 -712891.066372317
 1044042.41844250 421617.990404385 -569001.871331766
 1105280.21350057 452419.346714081 -406474.864268256
 1144725.85468666 477809.944966088 -229890.854586167
 1160243.27435576 493388.111422913 -44194.4197575102
 1150747.90521667 496301.606163305 144960.012686709
 1116061.17061862 485959.285930285 331361.534844475
 1057053.90552724 464121.142457764 508702.306710175
 976061.578622045 434386.518206508 670940.815912419
 877744.918832238 401404.807669065 812396.127983942
 770596.143547769 370145.818066982 927751.630467867
 669316.535859395 345362.939156373 1012071.75931423
 598678.538822188 331223.832900260 1059917.07722423
 682040.557979457 335278.471286719 -1006955.04114219
 747875.485930724 347191.042733443 -954824.626990999
 840414.501875704 369274.143397832 -865384.020521388
 936025.859230296 398542.135119780 -746035.648146458
 1021211.78454439 430935.128835168 -602470.610704319
 1088528.32654810 461720.217341702 -439852.195764980
 1134020.18270097 486086.480645675 -263187.365728884
 1155655.94462206 499969.520500888 -77712.5932444051
 1152525.49122178 500936.947046308 110890.026994672
 1124560.00878865 488791.158883871 296643.591788495
 1072582.29466680 465599.956045116 473638.399010306
 998681.101912733 435161.476831874 636254.647670903
 907080.875492766 402194.971666966 779097.504167508
 805711.806512161 371582.730531876 896830.078741976
 708699.728500654 347807.689426372 984034.520186128
 640337.213457656 334555.113637371 1034210.11400939
 640337.234290568 334555.207245847 -1034210.07082930
 708699.750437133 347807.778587730 -984034.472873367
 805711.827096869 371582.810325779 -896830.027187747
 907080.895935320 402195.035955195 -779097.447179190
 998681.121081781 435161.527821391 -636254.582708796
 1072582.31193489 465599.990250603 -473638.326280726
 1124560.02123940 488791.176438342 -296643.515663180
 1152525.49769028 500936.949718781 -110889.947692146
 1155655.94492423 499969.507983262 77712.6692837978
 1134020.17548079 486086.456295150 263187.441812661
 1088528.31652616 461720.174356438 439852.265689223
 1021211.77083610 430935.071313968 602470.675084171
 936025.843851925 398542.060622201 746035.707238773
 840414.485895136 369274.056841963 865384.072975721
 747875.471903290 347190.943743344 954824.673972658
 682040.542703064 335278.367521502 1006955.08603928
 598678.566134087 331223.916786166 -1059917.03558317
 669316.563504897 345363.019172836 -1012071.71372624
 770596.170643699 370145.888202391 -927751.579979837
 877744.946330752 401404.863694749 -812396.070591173
 976061.605718624 434386.559132924 -670940.749996297
 1057053.92915141 464121.168704194 -508702.233674257
 1116061.18941055 485959.295556224 -331361.457434249
 1150747.91841780 496301.598057795 -144959.935642022
 1160243.27952100 493388.092265614 44194.4980263815
 1144725.85545713 477809.908854365 229890.925805021
 1105280.20819320 452419.298260909 406474.932629868
 1044042.41167674 421617.923221550 569001.933527050
 964868.122749817 390339.827048914 712891.124955011
 874823.948017048 363117.541402066 833293.550929646
 786782.656206053 343435.494679348 924432.011457119
 723601.358913443 333343.067464730 978178.359845881
 557279.756968726 325643.023764469 -1083948.94919704
 629793.763053576 340232.156745155 -1038822.08604472
 734903.110803068 365361.326434303 -958111.658313943
 847612.202815109 396576.363804414 -846067.474986210
 952770.662064749 428998.833087847 -706921.139616661
 1041297.06949951 457641.298670282 -545723.634930791
 1107936.19603917 477915.267807122 -368271.385288166
 1149886.67390656 486361.252239810 -181004.973442143
 1166040.22373022 481471.046784105 9233.56219145315
 1156599.56302852 464222.453295277 195766.175775367
 1122866.31183781 437936.097216637 372736.705213451
 1067220.69231673 407420.107978698 535348.746542454
 993590.289713552 377773.439577365 679422.545589842
 908797.681147484 353298.919043411 800509.887173586
 825133.917360543 336766.086608995 892912.118996188
 764622.161681873 329025.952078523 947968.514056619
 516663.475393711 318407.716196008 -1105994.94138983
 590491.470282279 333045.298483256 -1063931.42805400
 698704.367719369 357913.805276802 -987552.198843742
 816418.731099703 388430.399334528 -879847.550034279
 928252.910959590 419721.435280547 -744130.284950182
 1024577.37035763 446860.938702945 -584898.234337830
 1099408.01921042 465331.647164679 -407820.912119261
 1149234.64849544 471769.529573623 -219642.128432596
 1172466.06461486 464863.889774362 -27826.6460313853
 1169181.78540708 445961.437305062 160255.358812317
 1140897.99504936 418882.569644335 338287.730577767
 1090358.68192013 388900.315123997 501421.898780662
 1021739.47901473 361334.185357355 645782.838447879
 941774.590552961 340273.656555483 767348.610581995
 862244.182245157 327679.291770590 860645.503589055
 804314.102913023 322912.049455161 916709.366751993
 477961.541795161 310207.949148135 -1125554.62940235
 552388.764856674 324591.736007499 -1086764.13645957
 662653.458533508 348735.479524094 -1015294.73067363
 784394.878490222 378012.145346390 -912896.995004301
 902316.347404827 407660.268572538 -781784.973987305
 1006362.15132080 432907.409940185 -625600.372223997
 1089730.80994024 449343.056700783 -449585.375852835
 1147959.50065403 453673.991019230 -260611.445738278
 1178685.73457524 444734.615076859 -66786.9162353028
 1181658.55650553 424203.096793128 123629.363127640
 1158557.20755137 396396.998598551 303585.321206066
 1112585.54568358 367085.305644059 467922.229473162
 1048348.96846942 341877.587749856 612889.538352866
 972675.985349366 324750.430918559 734838.768752578
 896926.575891554 316882.112662562 828648.221534879
 841388.461306872 315848.992383379 885355.466526870
 443212.858321529 301602.187194419 -1141992.95699096
 517434.645178845 315666.374919386 -1106420.15465774
 628398.524576401 338915.493098379 -1040096.63674441
 752749.314406377 366650.972481398 -943655.109114622
 875657.160621227 394322.332728683 -818097.711696552
 986822.939677916 417419.206955064 -665951.291243884
 1078608.56095248 431693.098475065 -491725.606296814
 1145405.43141763 433913.814158556 -302183.107536329
 1183796.97851669 423008.531892824 -106009.086967072
 1192959.35097126 400920.774418526 87521.1430960102
 1174633.67138730 372408.666090313 270364.484322524
 1132542.17558753 343713.624232513 436759.196756474
 1071897.96194928 320798.565535050 582814.267531767
 999844.536311275 307739.826202700 705093.279996468
 927444.257958692 305221.613192287 798896.955895254
 874027.694185689 308896.327043924 855691.579866353
 415623.213944644 292789.691972807 -1154591.25720912
 488902.130017364 306942.938469905 -1121744.25369908
 599091.779020527 329576.594084461 -1060197.02879260
 724385.515589860 355850.485444921 -969631.624758176
 850717.432040510 381577.485662054 -849839.928561361
 967704.062940300 402612.985805634 -702140.342914764
 1066944.33860948 414907.141020452 -530123.828514016
 1141639.74831156 415280.995521802 -340220.238599177
 1187160.70145078 402699.115721785 -141535.585796444
 1201916.50195522 379274.958400000 55647.6340680437
 1187581.11376741 350086.296923636 242157.208953626
 1148386.02383932 321739.480840872 411391.149197104
 1090279.28831596 300543.751089956 559029.478711971
 1020970.07637501 290925.724465124 681565.665882748
 951449.836155967 293744.332158343 774601.128015308
 899913.577957772 303304.679677763 830488.563685114
 399719.034291251 284212.006440098 -1162324.24905425
 471676.863211531 299545.383446503 -1131080.42635604
 580147.046858341 322165.084288015 -1072934.52428664
 705120.971192895 347513.030282700 -986705.903847077
 833133.703004752 371950.371340376 -871258.047363868
 953743.484446011 391671.835536158 -726991.038489108
 1058008.25790046 402765.737175511 -556729.483762851
 1138223.67113949 402062.336410731 -366527.192738335
 1188759.47824373 388513.837003974 -165702.541504616
 1207322.99924511 364301.000069922 34718.6946874617
 1195447.86105440 334657.348108136 224629.254053506
 1157740.82418062 306366.074408967 396642.715041857
 1100803.16580080 285925.882660660 545919.600954767
 1033020.94656216 278109.635598954 668634.567959047
 965724.669009516 284549.193990849 760234.865541283
 916142.692560771 300383.246448602 813634.993740714
 836312.269684731 304302.040333302 -894165.245769884
 888249.546324140 295200.541037123 -845824.340478153
 962308.216501020 298460.662558437 -759232.217624331
 1040876.04646992 317959.552797542 -637987.624949645
 1111061.98112498 351455.690283811 -483290.391777786
 1161709.44172357 392691.921774253 -296266.195342161
 1182421.70341172 432261.740966535 -81105.6934897580
 1165008.48822051 459637.448519683 151782.967461572
 1106735.56952611 466981.072750604 385505.496403587
 1012436.71582469 452649.911523455 601356.287875067
 892867.933758204 421261.273556501 785414.045702560
 760765.841614237 380526.997749022 931656.572528768
 628062.619665655 337973.688309592 1040605.86328738
 505643.576881252 299442.383406935 1116336.98456034
 405085.133119284 269243.894798606 1164028.86173770
 341826.172609899 251444.936054986 1188057.12942187
 817722.412545903 303929.506208208 -911321.206927117
 871560.473823772 301433.660700359 -860853.947881879
 947744.342668485 309331.739832792 -773074.360324318
 1027678.46284138 332046.544755641 -652051.761784886
 1098794.75995089 367869.235499206 -498870.456127282
 1150659.33789190 410667.521596860 -314459.386481982
 1173696.65684522 451059.579024105 -102619.904501590
 1160304.13111663 478643.877397913 127058.226267043
 1107614.21459182 485746.691407406 358873.702491372
 1019437.49421291 470737.094694379 575068.008143862
 905153.315104736 438129.616617517 761767.251932273
 776518.713776001 395656.789039702 912153.399029687
 645189.983689842 351113.150889686 1025669.96209189
 522381.061072850 310820.456704237 1105467.36796955
 420533.113784833 279701.762115941 1156057.20247686
 356688.016409335 262198.925093617 1181344.49401886
 789761.771891216 306137.680615992 -934936.091444363
 844865.331448377 310078.875932985 -884083.193673374
 923297.354949166 324547.212617298 -796078.219803287
 1005403.10859928 352386.638274287 -675675.719042500
 1078519.38599199 391768.040936437 -524273.942762030
 1132839.99585618 436634.763778709 -342889.279166650
 1159749.80033777 477795.897808926 -135058.918892549
 1152427.07375149 505236.120836495 90541.3320291821
 1107932.08260850 511666.828736688 319738.936659727