# OOMMF OVF 2.0
#
# Segment count: 1
#
# Begin: Segment
# Begin: Header
#
# Title: Oxs_MinDriver::Magnetization
# Desc: Oxs vector field output
# Desc:  MIF source file: C:/Users/grl31/Documents/GitHub/phd-work/Skyrmions/stdprob3/drive-116/stdprob3.mif
# Desc:  Iteration: 571, State id: 1195
# Desc:  Stage: 0, Stage iteration: 571
# Desc:  Stage simulation time: -1 s
# Desc:  Total simulation time: -2 s
# meshunit: m
# meshtype: rectangular
# xbase: 3.1249999999999999e-09
# ybase: 3.1249999999999999e-09
# zbase: 3.1249999999999999e-09
# xnodes: 16
# ynodes: 16
# znodes: 16
# xstepsize: 6.2499999999999997e-09
# ystepsize: 6.2499999999999997e-09
# zstepsize: 6.2499999999999997e-09
# xmin: 0
# ymin: 0
# zmin: 0
# xmax: 9.9999999999999995e-08
# ymax: 9.9999999999999995e-08
# zmax: 9.9999999999999995e-08
# valuedim: 3
# valuelabels: Magnetization_x Magnetization_y Magnetization_z
# valueunits: A/m A/m A/m
#
# End: Header
#
# Begin: Data Text
 502268.375057738 -1157241.91625085 -8188.87097618947
 609451.789755460 -1103963.18283079 -37191.9055298022
 745716.954288209 -1015190.78166815 -69594.0501916615
 880375.097734336 -898337.476016122 -97359.6291755166
 999209.520727092 -761337.451253769 -116168.196705060
 1096780.86650646 -611052.717962900 -123433.130295123
 1171759.01003188 -452336.121426022 -117992.739528059
 1224037.77611900 -288583.815036443 -100001.676244059
 1253585.39676187 -122619.831621059 -70975.0719447777
 1260371.84561770 43197.3506383330 -33856.0273958267
 1244361.60876294 207513.229724030 7202.57213594038
 1205211.45262267 369834.433092256 47299.8677104845
 1142506.92805543 528817.189253402 81115.5386743689
 1057975.55254425 679410.137339944 103145.656318464
 960969.946119539 810093.641796134 108786.419627820
 878108.042508631 900377.873933642 98971.6157862875
 447945.297600856 -1179137.42182877 23008.2967477825
 539283.931909467 -1140486.59459964 -3549.54105876786
 668094.054503256 -1069481.47952246 -37538.3832203226
 806259.686915121 -967664.843742936 -71550.6698671895
 937704.758427062 -837954.747458525 -100454.259013338
 1052968.25886228 -684412.229327121 -119946.559329446
 1146174.22245189 -511638.324138754 -126729.270408442
 1213153.55326782 -325048.513994540 -118959.449656386
 1250958.03990019 -131348.828156100 -96958.2315744985
 1258404.08307229 62404.1587633977 -63830.3657751235
 1236092.40556081 250994.267506143 -25037.4422194830
 1185350.30395304 431654.273318299 12987.5387757258
 1107883.07599879 601840.723562495 43957.5283221938
 1008070.22464325 755951.314678765 62301.3879629685
 898581.202813070 883159.416395242 64270.5072516637
 809859.404506013 965887.680489004 52327.4739662723
 368106.145828526 -1205880.02223330 43596.6546977455
 442058.749503585 -1181418.16498674 19611.5360347216
 556755.541548946 -1131959.85008837 -15478.8779119342
 693058.807646522 -1052618.66257702 -56682.1952389616
 837064.312487130 -938623.952338748 -99286.6747121161
 976548.893180344 -786782.449390917 -137386.562216356
 1099109.76847981 -597162.197882170 -164025.782033629
 1191913.13681769 -375689.693891711 -172481.184782311
 1244065.45114836 -136060.550161808 -159179.492610251
 1250888.55070049 103481.153685297 -126960.290946930
 1215155.82596601 328326.465574991 -84542.7793655617
 1143438.46960367 531337.294888784 -42173.1693098971
 1043195.44568140 709382.649098064 -8303.62494115002
 924294.370323408 858545.676710411 11343.2318706654
 803895.678710413 972161.791941080 14234.4286708581
 713433.444618878 1040455.11785029 3911.36259193326
 278184.995324699 -1229583.01578465 47834.5752470677
 335529.510944069 -1215856.39677250 25741.0301265480
 431783.891280982 -1185325.37515645 -10763.6963640486
 558052.463931898 -1129838.46120573 -59932.7122593123
 707126.727310431 -1037927.72236398 -119278.101890150
 868994.189671676 -896080.565887946 -182861.009167504
 1026683.65293266 -692949.325990649 -239356.093151817
 1154703.94254217 -428852.601822193 -272568.673744547
 1226063.47808756 -126691.732865736 -268825.191234517
 1228408.78975270 173045.903576065 -229382.631061728
 1170708.79967498 437916.765811667 -170936.372675820
 1071371.00289453 656584.055017978 -112298.636553915
 947562.318006333 830261.082180803 -65890.9692551278
 814908.756210738 962323.965315543 -37493.1426982551
 691951.011373241 1054496.10749836 -28128.0651539565
 605759.073756124 1106108.48343417 -33606.5225221483
 185951.935103427 -1247191.92653521 38517.6211057605
 227328.130804608 -1240791.42317199 17549.8161431483
 302163.578543107 -1224659.79319252 -21330.5803630816
 410034.441279824 -1190386.44133653 -80008.1756162516
 552196.003533234 -1122943.78649082 -160082.032041498
 726206.932760360 -998674.066529992 -258501.509802541
 916731.612536008 -788164.832027573 -360484.089872258
 1085371.08193249 -475036.929668187 -433426.996015567
 1178802.79727600 -91984.1995957771 -439900.333118723
 1171090.88373062 279305.207727709 -376940.544248263
 1085360.19067522 578208.307041578 -281456.641571169
 959747.630193443 796437.541535759 -190055.675236234
 821424.311107251 949890.574766533 -120496.589207491
 687485.137811002 1054984.35996694 -76952.0398241079
 572716.880522356 1122604.33122233 -57483.2254188603
 496497.933649553 1158380.10741446 -56522.2040186977
 93812.8169905620 -1257912.07772172 20144.2549894841
 119249.745417148 -1255917.54058476 -245.740548395083
 169842.080865338 -1249363.89229407 -42343.3952121940
 250812.762049097 -1231303.37707442 -111957.058363398
 370515.142550295 -1186315.56556238 -216617.956237020
 536541.318884159 -1083410.95667801 -360407.468012302
 743277.997588151 -871306.225206568 -529067.775560545
 946885.510189699 -502553.744674535 -665129.307146625
 1061776.23114736 -18666.2509833781 -681052.301195502
 1042956.28020775 427851.009627925 -566334.832104242
 936207.850517602 742243.460449503 -405140.638504843
 800888.749948870 938214.580353678 -264348.335224682
 667497.853845153 1057835.79941901 -164254.276956862
 548448.940496830 1131456.17878610 -102762.376741760
 451963.493148888 1175601.92081297 -72377.8665094755
 389971.688887506 1198020.36489580 -64951.6595639983
 1462.93437001099 -1261562.16036955 -2864.65804358272
 10330.9359827794 -1261318.47718274 -22768.4386393969
 33457.6676119628 -1259287.15039305 -68013.8827877300
 78602.7612951051 -1250357.84048727 -148244.081054650
 157163.837943581 -1220494.06140913 -277926.618061035
 283713.196621202 -1134926.10349627 -472227.691463241
 466618.802669893 -921531.264353067 -724290.309705788
 674121.471946761 -491389.324093695 -946385.864299561
 804817.665515119 104209.404984587 -965897.694430681
 794893.228813393 610744.256512417 -765954.070974668
 702766.842055712 911393.977580064 -516748.695457267
 593187.283851249 1066291.73327760 -320468.745340311
 491009.248992892 1146362.48643314 -190558.122422604
 402793.314628503 1190165.43659609 -113195.451064002
 332392.804719959 1214758.22315622 -73667.5882848596
 287292.701726144 1226911.47292907 -60832.3273338923
 -92217.5711740689 -1257912.89697789 -26466.8491210224
 -100889.502465966 -1256707.93267443 -45342.1565906864
 -108332.535786555 -1253524.45839372 -92140.7880243359
 -106913.227467704 -1244178.76490955 -179271.285094761
 -87311.6104052001 -1215452.42363774 -326498.881285301
 -36095.3814027983 -1130497.89705422 -558767.446364172
 63754.1014916501 -903076.962317514 -878599.365805210
 213308.259626177 -413462.890700913 -1172645.49430229
 350777.589273365 266176.736783708 -1182224.36896627
 402397.549331939 789780.714482495 -897703.774216262
 387411.649058187 1052493.20797358 -577684.768937575
 347035.320870412 1163239.81054899 -343495.356797266
 300363.297190488 1209607.37299500 -195400.419180605
 254755.227184282 1230780.08227821 -108763.937996363
 215166.158584774 1241454.03572388 -63598.9960905729
 188230.586451341 1246561.32321038 -46941.9292225533
 -188230.564956687 -1246561.32198275 -46942.0480129828
 -215166.118078678 -1241454.03651825 -63599.1176231053
 -254755.156211448 -1230780.08492327 -108764.074302638
 -300363.186934021 -1209607.37228123 -195400.593081729
 -347035.151847933 -1163239.79189452 -343495.590734466
 -387411.403370636 -1052493.12522682 -577685.084460055
 -402397.192587119 -789780.468749586 -897704.150318268
 -350777.094852269 -266176.249776882 -1182224.62531478
 -213307.710912670 413463.388136278 -1172645.41872427
 -63753.6504266480 903077.238358831 -878599.114804025
 36095.7036672676 1130498.00814933 -558767.200778742
 87311.8286898664 1215452.45930222 -326498.690144337
 106913.373940542 1244178.77343211 -179271.138593368
 108332.631862294 1253524.45844365 -92140.6743859243
 100889.561158651 1256707.93153144 -45342.0576743502
 92217.6101071165 1257912.89608690 -26466.7558147390
 -287292.697652416 -1226911.46651638 -60832.4759087382
 -332392.786704436 -1214758.21900082 -73667.7380932605
 -402793.272982362 -1190165.43512761 -113195.614696924
 -491009.180030661 -1146362.48394664 -190558.315075114
 -593187.184996117 -1066291.71369782 -320468.993468476
 -702766.699442340 -911393.901781457 -516749.023094814
 -794893.020030420 -610744.034427831 -765954.464727955
 -804817.338573153 -104208.975622946 -965898.013172508
 -674121.035203050 491389.786555919 -946385.935273898
 -466618.382101166 921531.560819486 -724290.203452902
 -283712.866148260 1134926.24978082 -472227.538438136
 -157163.600049454 1220494.12439647 -277926.475982677
 -78602.5939378128 1250357.86508373 -148243.962333919
 -33457.5528831887 1259287.15858661 -68013.7875205163
 -10330.8645626914 1261318.47933982 -22768.3515480761
 -1462.88443794672 1261562.16061648 -2864.57479599686
 -389971.701198030 -1198020.35068276 -64951.8478076377
 -451963.491866253 -1175601.90982757 -72378.0529496082
 -548448.925392909 -1131456.16879691 -102762.567337175
 -667497.821899670 -1057835.78738968 -164254.484248686
 -800888.707405217 -938214.549336522 -264348.574202739
 -936207.791635477 -742243.375174338 -405140.930800362
 -1042956.19074855 -427850.799709497 -566335.155439040
 -1061776.05412090 18666.6022640585 -681052.567555786
 -946885.226031410 502554.128149829 -665129.421933781
 -743277.676901132 871306.510349874 -529067.756493754
 -536541.034739520 1083411.12484917 -360407.385485723
 -370514.913858789 1186315.65472988 -216617.859074402
 -250812.593823292 1231303.41994851 -111956.963703389
 -169841.962004395 1249363.91137239 -42343.3090550413
 -119249.665502917 1255917.54818862 -245.658856544504
 -93812.7652965832 1257912.08029679 20144.3349299230
 -496497.959286223 -1158380.08520175 -56522.4340553904
 -572716.901417261 -1122604.30922524 -57483.4468249532
 -687485.142246987 -1054984.34133701 -76952.2556024633
 -821424.306150309 -949890.551539919 -120496.806097198
 -959747.622898039 -796437.496711977 -190055.899912835
 -1085360.17895952 -578208.211413730 -281456.883201742
 -1171090.85094981 -279305.023808146 -376940.782373213
 -1178802.70216264 91984.4795520747 -439900.529454716
 -1085370.90727356 475037.233927216 -433427.099920969
 -916731.388802395 788165.083877939 -360484.108192117
 -726206.708408536 998674.240506246 -258501.467946828
 -552195.804716071 1122943.89391983 -160081.964259208
 -410034.279631686 1190386.50240063 -80008.0955171450
 -302163.458884875 1224659.82404842 -21330.5038709214
 -227328.050072557 1240791.43683421 17549.8959556641
 -185951.880246604 1247191.93227133 38517.7002039492
 -605759.126087972 -1106108.44664315 -33606.7901587866
 -691951.051395200 -1054496.07440886 -28128.3211074940
 -814908.785023508 -962323.931684748 -37493.3796458869
 -947562.332800882 -830261.047417573 -65891.1945329430
 -1071371.01417431 -656584.000704971 -112298.846495951
 -1170708.80669653 -437916.668549252 -170936.573760173
 -1228408.77774038 -173045.746102406 -229382.814188866
 -1226063.42386425 126691.947422232 -268825.337421148
 -1154703.83433602 428852.839389768 -272568.758363798
 -1026683.50449166 692949.536908077 -239356.119250296
 -868994.023304593 896080.731762919 -182860.986935653
 -707126.559859495 1037927.84242747 -119278.049841939
 -558052.315630839 1129838.53823759 -59932.6409493295
 -431783.771308468 1185325.41956384 -10763.6187870193
 -335529.423279247 1215856.41922424 25741.1123314139
 -278184.929929806 1229583.02721846 47834.6616502508
 -713433.526507437 -1040455.06285574 3911.05509739469
 -803895.745181069 -972161.741150258 14234.1435438323
 -924294.417669650 -858545.629145466 11342.9739880538
 -1043195.47613757 -709382.601627462 -8303.85412382104
 -1143438.49143918 -531337.231989689 -42173.3697464368
 -1215155.83893907 -328326.372768578 -84542.9533188162
 -1250888.54630135 -103481.021282026 -126960.442207296
 -1244065.41780130 136060.714585075 -159179.612690941
 -1191913.06885776 375689.873647917 -172481.262876416
 -1099109.66962276 597162.370569405 -164025.815762749
 -976548.771965703 786782.601098374 -137386.555019437
 -837064.177487641 938624.076510438 -99286.6389844094
 -693058.672569766 1052618.75495291 -56682.1313658389
 -556755.423827551 1131959.90911943 -15478.7952985921
 -442058.655367157 1181418.19861528 19611.6321236683
 -368106.069546895 1205880.04194972 43596.7534230976
 -809859.512639528 -965887.608826517 52327.1231925959
 -898581.293193801 -883159.347677379 64270.1878881312
 -1008070.28882352 -755951.252003490 62301.1099787202
 -1107883.11927567 -601840.661114512 43957.2925941301
 -1185350.33261306 -431654.200408948 12987.3462406473
 -1236092.42089292 -250994.175776009 -25037.6048484974
 -1258404.08150417 -62404.0476568765 -63830.5053140051
 -1250958.01683420 131348.960666981 -96958.3496606329
 -1213153.50675221 325048.657161594 -118959.532830344
 -1146174.15408205 511638.465944067 -126729.316259719
 -1052968.16968824 684412.364235281 -119946.572373814
 -937704.651275970 837954.869379207 -100454.242210281
 -806259.571756405 967664.943581142 -71550.6172876069
 -668093.942708834 1069481.55215595 -37538.3035421663
 -539283.833050101 1140486.64165618 -3549.44130208071
 -447945.214391874 1179137.45131270 23008.4057281834
 -878108.173796619 -900377.788606804 98971.2272028620
 -960970.054217594 -810093.560066485 108786.073349474
 -1057975.62983609 -679410.062078316 103145.359268480
 -1142506.97883313 -528817.116700633 81115.2964672853
 -1205211.48553054 -369834.350458588 47299.6753170549
 -1244361.62502130 -207513.137817326 7202.41116029343
 -1260371.84540135 -43197.2488187351 -33856.1653624292
 -1253585.37902118 122619.944143139 -70975.1908881974
 -1224037.74063138 288583.933670422 -100001.768265830
 -1171758.95682146 452336.244797549 -117992.794992285
 -1096780.79593383 611052.839877096 -123433.153843909
 -999209.432627925 761337.567985524 -116168.189450561
 -880374.996357604 898337.579874985 -97359.5875692674
 -745716.846885142 1015190.86578353 -69593.9740231240
 -609451.688424259 1103963.24210195 -37191.8066720773
 -502268.284261616 1157241.95647400 -8188.75571008404
 513610.671895647 -1152112.55738992 19752.5628289234
 627677.661499803 -1094322.95721858 -5239.22489317990
 769166.200544139 -999209.839370468 -38890.6642356621
 904885.149068001 -876187.372280027 -70908.2969204433
 1021159.52125743 -734669.198645446 -95099.0621715272
 1113923.50069891 -582298.002373217 -107948.607873392
 1183240.38386776 -424087.102883746 -107896.960434965
 1230159.67098188 -263158.488877677 -94890.5924753225
 1255493.82569055 -101741.966036839 -70237.1477128136
 1259671.29476005 58630.0547812847 -36608.4246156028
 1242669.35794926 217526.176289599 2158.78710094599
 1203717.06693565 375356.971284676 41494.5513868382
 1141538.32316459 531594.113833998 76468.2012511104
 1056566.23313064 681740.611061282 102210.396520439
 956827.445061848 814084.708720077 115311.570640236
 869678.187061284 906322.515304009 117425.636561049
 457357.601276065 -1175198.94275911 35789.6690656182
 554034.654124720 -1133333.36813125 12268.2365535920
 688063.544907788 -1057169.48881420 -22597.8098099787
 828490.671897020 -949510.094651569 -59859.9837399511
 958920.908444588 -814489.210208450 -92884.0606389232
 1070515.89753966 -657243.515423603 -116516.545895611
 1158453.94286299 -483114.012223701 -127022.613645203
 1219808.55380785 -297754.658582986 -122305.708240761
 1252796.51484554 -107481.961442932 -102459.510413687
 1256959.85865987 81587.7960615429 -70319.1024582079
 1232951.80918858 265355.133809265 -31079.2551168345
 1181566.87364850 442004.494653615 9010.03448700140
 1103598.69651340 609673.504091697 43790.0260496565
 1002296.05007814 763106.812553580 67970.9610865019
 889447.896617457 891210.289680782 78588.1014456617
 796935.940410334 974830.804368460 78405.6162248017
 375718.252218244 -1203382.14845711 47504.0066076020
 453894.306319596 -1176812.49567334 25332.5805373278
 573611.302156239 -1123562.47123026 -11264.0223955677
 713326.523558720 -1039022.10785143 -56104.9115725193
 858128.927237854 -918970.663040482 -103233.209906019
 995358.762923473 -761286.370341904 -145785.549085140
 1112872.42734271 -567509.258274870 -176061.447090524
 1199049.86748145 -344855.488088357 -186824.887386594
 1244870.62259967 -107229.273744725 -174208.055954500
 1247098.81125742 128287.068859307 -140841.804315263
 1208679.19237497 348643.624817493 -95350.2161133928
 1135431.43307077 547745.509219047 -48163.7710750634
 1033844.26858837 722945.238154411 -8101.96616860151
 912933.779377184 870484.763326598 18910.9018103890
 789446.850515647 983553.437127946 30752.8444811982
 696296.647959306 1051543.05702004 31266.7266042214
 285358.967414236 -1227936.19037045 47879.0456643779
 346375.559641477 -1212799.17161999 26297.7550347170
 447420.711786894 -1179490.18937468 -12924.0377568037
 577780.403033966 -1119468.59100390 -67151.4001686793
 728965.685435631 -1021031.04467172 -132868.604993403
 889540.331431519 -871254.403814917 -202936.427259305
 1041584.02491313 -660790.296587292 -264590.880229829
 1160567.80124995 -392889.348373774 -300449.279505289
 1222798.39946556 -91874.7266180143 -296433.027499099
 1218897.01695883 203564.752603127 -253773.293444046
 1157968.99554527 463465.844297172 -189358.515638318
 1057049.11902977 677566.346908432 -122883.833007022
 932167.137191546 847348.637518878 -67927.5036636313
 798275.291164597 976395.002600891 -30964.3235198064
 673563.011952297 1066629.92505463 -12763.3391655830
 586009.205038744 1117170.06279325 -8584.48177509954
 194013.956424592 -1245988.77332317 37682.7863094599
 238778.873387568 -1238660.83602130 15918.9776600400
 318245.293957928 -1220466.40229854 -27039.3168004337
 430571.577897795 -1182194.76215161 -92590.9907434364
 575558.963273595 -1107836.29981863 -181604.084531542
 748362.029945458 -973484.010868008 -289538.570209916
 930991.765420001 -752048.219559532 -399032.879718503
 1085548.37369932 -432819.148122404 -475186.010206849
 1165249.77999494 -52061.8863531959 -480657.821251309
 1150294.89760403 312884.266017293 -412885.596193310
 1062685.57871306 605813.289270347 -308608.247228893
 937336.204601155 818793.779282597 -206220.797862331
 799839.388917195 967459.239530961 -125813.364559162
 666641.673097797 1068574.42413537 -72711.8332329137
 552035.380903658 1133494.81647563 -44675.1628132743
 475754.278351454 1167888.23984374 -35275.4416545780
 103699.437484585 -1257133.93594390 20251.5353127239
 132337.275816669 -1254604.13923754 -2174.89227199276
 187503.503993500 -1246568.73289384 -49580.8539715865
 273249.587468514 -1224976.31921268 -127738.448539930
 396246.248342420 -1172658.86711120 -243740.687984147
 560530.228492116 -1057185.01507355 -399643.763581353
 755247.465279606 -829863.252366123 -576608.775063304
 935914.319468870 -454157.547873513 -713690.926971609
 1030213.81184712 21205.1393936595 -727845.639446770
 1005318.31023655 456913.321544518 -610012.083992802
 901201.602760282 765619.378478595 -439558.948719397
 770159.697958080 957500.757904943 -285649.731614669
 640723.160168661 1072897.97534211 -172954.321857634
 524897.646931488 1142709.91745233 -101222.209622355
 430487.536142869 1184191.51976965 -62612.7514987236
 369544.173850947 1205276.32289790 -47911.5847523331
 13702.7576752491 -1261491.69382706 -609.718284533807
 25599.2800108407 -1261084.16714267 -23681.8741648988
 53331.0545056999 -1258193.76364069 -75190.9747240019
 103742.045313942 -1246402.05812170 -165133.062900868
 186500.100004803 -1209186.43446704 -307628.526502389
 311844.222588885 -1108839.97271921 -514564.404770618
 480005.266285356 -875996.397877839 -770567.768701967
 655330.827154078 -441578.314127254 -983412.187433651
 757238.506388688 131126.997747365 -1000472.38133941
 742826.724720499 622119.576454329 -807914.055176822
 658120.067195110 922317.212267779 -554759.739011988
 556658.043158858 1078078.52863715 -345583.477610072
 461207.392526072 1156680.39187391 -202305.815666963
 378228.385908454 1198084.13533686 -114398.967067777
 311364.518564002 1220699.94112810 -67031.4943008948
 268156.027016616 1231802.64700885 -48000.1553705960
 -77449.8220447846 -1259007.86355215 -21216.8682430263
 -83312.5360583442 -1258032.80921736 -44293.3763350394
 -86142.5803368364 -1254798.57438205 -98027.6721168589
 -78845.1743680366 -1243834.31395622 -195471.401547356
 -53336.6272243365 -1209128.35650737 -355968.049977900
 425.367784541647 -1109975.10167140 -599586.960874548
 91469.9230492535 -863233.345080206 -915429.339729701
 211959.259444194 -377607.819226389 -1184919.84459452
 314772.384466184 262785.291960964 -1193068.17375430
 353918.329079285 772645.941883528 -932367.682704412
 342465.266230894 1045940.89075460 -616664.110672771
 309603.412809274 1165294.48538931 -371192.564603696
 270297.630183073 1214293.55848095 -209713.556710194
 230784.108057341 1235161.66817912 -112533.461015412
 195545.326816085 1244876.75148618 -59944.3882991553
 171070.065962342 1249332.98223950 -38099.3823986343
 -171070.042032506 -1249332.98159699 -38099.5109143871
 -195545.286064269 -1244876.75141790 -59944.5226539139
 -230784.039741065 -1235161.66671836 -112533.617151815
 -270297.523341774 -1214293.54928824 -209713.747644769
 -309603.254467246 -1165294.44799706 -371192.814059594
 -342465.036803231 -1045940.77566523 -616664.433291826
 -353918.005476845 -772645.661674435 -932368.037747927
 -314771.953884763 -262784.810756218 -1193068.39334648
 -211958.790259176 377608.316926539 -1184919.76991640
 -91469.5217539670 863233.650307072 -915429.092003625
 -425.070570411642 1109975.24049557 -599586.704089389
 53336.8323933718 1209128.40940851 -355967.839545141
 78845.3161641338 1243834.33107025 -195471.235451573
 86142.6720271513 1254798.57841258 -98027.5399504806
 83312.5926290153 1258032.80941737 -44293.2642488950
 77449.8600018232 1259007.86304341 -21216.7598729847
 -268156.020503252 -1231802.64219773 -48000.3152228690
 -311364.498069010 -1220699.93737552 -67031.6578386531
 -378228.344392856 -1198084.13164177 -114399.143025542
 -461207.327129812 -1156680.38154355 -202306.023817871
 -556657.946354399 -1078078.49496964 -345583.738569190
 -658119.930821169 -922317.109434819 -554760.071759580
 -742826.526955244 -622119.324501191 -807914.431021470
 -757238.207924664 -131126.564601791 -1000472.66401123
 -655330.442570104 441578.770068465 -983412.238984571
 -480004.891078012 875996.710593247 -770567.646926570
 -311843.913781719 1108840.13908833 -514564.233408069
 -186499.871477674 1209186.51066685 -307628.365530710
 -103741.888198303 1246402.08924709 -165132.926675750
 -53330.9446855381 1258193.77512387 -75190.8604648687
 -25599.2094452149 1261084.17042351 -23681.7757352817
 -13702.7106159611 1261491.69438296 -609.625728863259
 -369544.184296940 -1205276.31174953 -47911.7846329004
 -430487.538994739 -1184191.50823322 -62612.9500785911
 -524897.631581515 -1142709.90668551 -101222.410768866
 -640723.127976180 -1072897.95911459 -172954.541782263
 -770159.655382724 -957500.716418807 -285649.985466812
 -901201.544082358 -765619.273680647 -439559.251559155
 -1005318.21828626 -456913.095994969 -610012.404471407
 -1030213.64013914 -21204.7840140780 -727845.892840738
 -935914.060852690 454157.931326353 -713691.022103088
 -755247.167609763 829863.549568764 -576608.737215728
 -560529.957785111 1057185.19670999 -399643.662781775
 -396246.029420416 1172658.96536960 -243740.571152610
 -273249.423864668 1224976.36746922 -127738.335743371
 -187503.387489952 1246568.75443637 -49580.7529361422
 -132337.201538822 1254604.14723668 -2174.79754296311
 -103699.384049879 1257133.93888082 20251.6266167819
 -475754.308215057 -1167888.22038883 -35275.6829952581
 -552035.399391611 -1133494.79819103 -44675.3982789309
 -666641.679082431 -1068574.40480835 -72712.0623940111
 -799839.384613779 -967459.213538866 -125813.591787069
 -937336.197461150 -818793.727594635 -206221.035541260
 -1062685.56623125 -605813.182392955 -308608.500015202
 -1150294.86178861 -312884.072156846 -412885.842881822
 -1165249.68862335 52062.1667018500 -480658.012395985
 -1085548.21056717 432819.455255533 -475186.103127684
 -930991.555690848 752048.477544961 -399032.882822449
 -748361.814283319 973484.194481037 -289538.510283416
 -575558.766543468 1107836.41622973 -181603.997888787
 -430571.421001383 1182194.82687617 -92590.8939530584
 -318245.177905967 1220466.43470092 -27039.2201621991
 -238778.791816545 1238660.85051881 15919.0731388883
 -194013.900605035 1245988.77918292 37682.8799487779
 -586009.255038631 -1117170.03437941 -8584.76631787393
 -673563.052851141 -1066629.89600710 -12763.6082943331
 -798275.316902809 -976394.973514588 -30964.5771506790
 -932167.152765924 -847348.601348487 -67927.7411370908
 -1057049.13116239 -677566.288004376 -122884.053431491
 -1157969.00245659 -463465.742383986 -189358.722812319
 -1218897.00471026 -203564.591055053 -253773.481861095
 -1222798.34847038 91874.9442031526 -296433.170419117
 -1160567.70144302 392889.582937899 -300449.358303690
 -1041583.88526323 660790.510807265 -264590.894979369
 -889540.169344141 871254.576881207 -202936.394729235
 -728965.522272404 1021031.16955325 -132868.540512036
 -577780.254936667 1119468.67272407 -67151.3120771605
 -447420.595317918 1179490.23459971 -12923.9424419874
 -346375.472237811 1212799.19436951 26297.8570925690
 -285358.903599425 1227936.20122560 47879.1476022805
 -696296.722930407 -1051543.01713241 31266.3985036624
 -789446.912069957 -983553.397462488 30752.5329389213
 -912933.825804557 -870484.720661302 18910.6244218250
 -1033844.30005410 -722945.190407771 -8102.21148060783
 -1135431.45435829 -547745.446766824 -48163.9794761740
 -1208679.20542920 -348643.529584788 -95350.3988489319
 -1247098.80747291 -128286.939191575 -140841.955934526
 -1244870.59238154 107229.436896052 -174208.171466071
 -1199049.80502354 344855.665035882 -186824.961620804
 -1112872.33395510 567509.433118658 -176061.473802822
 -995358.646284619 761286.525295328 -145785.536282479
 -858128.795765537 918970.791053009 -103233.163219717
 -713326.394459658 1039022.20081546 -56104.8313314683
 -573611.184628285 1123562.53220228 -11263.9255804526
 -453894.212499527 1176812.52946397 25332.6918229419
 -375718.176440438 1203382.16751509 47504.1231673366
 -796936.041994986 -974830.751693115 78405.2386116856
 -889447.982208194 -891210.234900926 78587.7539605421
 -1002296.11369197 -763106.756106893 67970.6567641651
 -1103598.73832925 -609673.446561152 43789.7731813974
 -1181566.90085318 -442004.426119812 9009.82894742475
 -1232951.82293771 -265355.050292091 -31079.4227425379
 -1256959.85769785 -81587.6906050365 -70319.2420103010
 -1252796.49485534 107482.087763574 -102459.622325580
 -1219808.51225913 297754.797479536 -122305.784479036
 -1158453.88005345 483114.152596059 -127022.652583937
 -1070515.81373973 657243.651339740 -116516.549149592
 -958920.807906499 814489.332231130 -92884.0285764395
 -828490.559499014 949510.196956184 -59859.9166069680
 -688063.433213461 1057169.56363207 -22597.7105794571
 -554034.553927918 1133333.41584478 12268.3536972019
 -457357.512762251 1175198.97333790 35789.7960937521
 -869678.311893858 -906322.450219340 117425.214365635
 -956827.548781305 -814084.640464006 115311.191879640
 -1056566.30637865 -681740.545786884 102210.074721340
 -1141538.37147818 -531594.047579396 76467.9406028604
 -1203717.09596772 -375356.901048516 41494.3445452004
 -1242669.37250304 -217526.094801302 2158.62047214657
 -1259671.29503276 -58629.9631676680 -36608.5619549524
 -1255493.81106690 101742.069589246 -70237.2591105404
 -1230159.64014844 263158.603244129 -94890.6750287518
 -1183240.33655003 424087.222452854 -107897.009375386
 -1113923.43587918 582298.123741899 -107948.622060358
 -1021159.44085897 734669.313498497 -95099.0382032744
 -904885.052869616 876187.476534149 -70908.2363116276
 -769166.093398337 999209.925452325 -38890.5716447585
 -627677.555027122 1094323.01886700 -5239.10411608519
 -513610.573576303 1152112.59887507 19752.6996359267
 535460.198074342 -1140965.80823832 55034.8219604103
 653444.215510030 -1078687.64255969 31512.8215883043
 798343.761907368 -976821.220944051 -4119.59414488899
 934040.220381604 -847002.855833965 -41285.1043058536
 1046762.30966473 -700444.785548297 -72216.3442893542
 1133699.90500433 -545688.197828933 -92186.4798239793
 1196382.42014569 -387852.504983136 -98939.2240903014
 1237070.66740154 -229649.968138844 -92013.5148089700
 1257395.48865805 -72571.1330946872 -72384.0221504826
 1258135.32199447 82772.7526013170 -42351.0790373654
 1239118.21738184 236869.314886218 -5329.34674546278
 1198979.78493040 390899.940901428 34556.3662797940
 1135506.33467582 544856.448383752 72843.9804285540
 1048068.60991690 694300.514035440 105111.445789349
 944252.306539810 826792.890769797 127869.184269411
 853120.129471975 918778.503545035 139934.045293556
 476986.905484821 -1166491.47856364 57710.9465645202
 577747.561397009 -1120948.00007962 35110.7866085737
 716282.662846088 -1038501.74067701 -1646.94744655116
 858409.871574775 -923463.735828815 -43550.5672870093
 986747.121878110 -781699.977212297 -82611.7062559242
 1093035.62109706 -619816.364496442 -112473.268976773
 1173817.57861409 -444023.440212451 -128627.009595238
 1227756.56029037 -260086.548321732 -128523.332375863
 1254431.54990823 -73644.6605682075 -111925.785606252
 1254092.55699486 110411.753085894 -81305.1916518333
 1227265.59437964 289221.795744829 -41464.9808523186
 1173994.61339559 461826.119718968 1647.35618936991