# OOMMF OVF 2.0
#
# Segment count: 1
#
# Begin: Segment
# Begin: Header
#
# Title: Oxs_MinDriver::Magnetization
# Desc: Oxs vector field output
# Desc:  MIF source file: C:/Users/grl31/Documents/GitHub/phd-work/Skyrmions/stdprob3/drive-136/stdprob3.mif
# Desc:  Iteration: 584, State id: 1223
# Desc:  Stage: 0, Stage iteration: 584
# Desc:  Stage simulation time: -1 s
# Desc:  Total simulation time: -2 s
# meshunit: m
# meshtype: rectangular
# xbase: 3.1249999999999999e-09
# ybase: 3.1249999999999999e-09
# zbase: 3.1249999999999999e-09
# xnodes: 16
# ynodes: 16
# znodes: 16
# xstepsize: 6.2499999999999997e-09
# ystepsize: 6.2499999999999997e-09
# zstepsize: 6.2499999999999997e-09
# xmin: 0
# ymin: 0
# zmin: 0
# xmax: 9.9999999999999995e-08
# ymax: 9.9999999999999995e-08
# zmax: 9.9999999999999995e-08
# valuedim: 3
# valuelabels: Magnetization_x Magnetization_y Magnetization_z
# valueunits: A/m A/m A/m
#
# End: Header
#
# Begin: Data Text
 502317.386433331 -1157223.64012217 -7753.76993103867
 609565.501514984 -1103913.59887029 -36798.0503693837
 745879.467020705 -1015095.12437750 -69246.9498310171
 880551.878993751 -898197.374807942 -97053.0535719985
 999369.503490924 -761170.006124268 -115888.947652652
 1096905.57991601 -610882.814489655 -123165.606519346
 1171843.28389173 -452188.070984237 -117722.968771455
 1224086.29449832 -288475.717031303 -99719.2821053462
 1253608.24021984 -122560.809663327 -70672.9007933118
 1260380.22786407 43208.4790017514 -33528.1891937999
 1244363.50617943 207489.024494850 7563.07622309488
 1205206.42862592 369799.091892789 47702.4837191328
 1142480.58846644 528804.036407143 81570.9934709206
 1057896.95740154 679454.005178633 103661.532335915
 960800.251765842 810217.640493282 109360.331743954
 877834.066938623 900577.320675187 99585.4975709394
 447945.273490269 -1179129.29789676 23421.3944541406
 539325.557769882 -1140468.04521094 -3164.09669533868
 668177.462992176 -1069441.67122731 -37186.2973530041
 806368.142009339 -967598.144504203 -71229.7776451996
 937816.701621845 -837865.207995886 -100155.670374117
 1053065.45014967 -684313.272211471 -119657.570154387
 1146246.68092669 -511548.137471961 -126437.654330004
 1213200.58284672 -324983.708188662 -118656.504715374
 1250985.85568173 -131319.061321268 -96639.1428816115
 1258421.39690128 62399.7485774781 -63492.4414198429
 1236104.70143383 250969.354100027 -24677.5467733262
 1185353.13670502 431634.674451616 13374.6040531113
 1107856.62749978 601858.551335310 44378.0126675396
 1007979.89455775 756033.928035896 62758.7662794570
 898391.186768911 883316.904300136 64760.7368127301
 809567.212010520 966104.861546216 52837.0765015815
 368063.947196463 -1205879.45453663 43967.0651686365
 442035.041654005 -1181421.06238868 19968.1299401068
 556756.227547187 -1131964.14078196 -15136.6439520105
 693083.886951002 -1052619.84246953 -56352.6734705257
 837108.520581047 -938618.500493354 -98964.9747192048
 976603.181579647 -786771.147295939 -137065.015339791
 1099164.98992754 -597150.802877999 -163696.898134048
 1191963.59506363 -375685.761181576 -172140.720944664
 1244109.54675903 -136068.966917485 -158827.273552125
 1250926.74319716 103462.034173189 -126599.058281828
 1215185.99346469 328309.138217302 -84175.6613825838
 1143448.86546978 531344.343803306 -41800.8526594225
 1043161.02818440 709437.597260386 -7924.37944730364
 924182.376250374 858661.022206131 11730.9543980355
 803681.881411034 972332.682193157 14629.4070158355
 713128.078184905 1040662.86732405 4309.47747935265
 278125.721613516 -1229583.84825392 48156.7649350195
 335471.001180072 -1215865.72591779 26060.9828018894
 431729.611043961 -1185348.04736279 -10439.3716289494
 558009.996500780 -1129877.09880267 -59598.7946641716
 707105.267494435 -1037982.19886918 -118930.763182970
 869001.427977055 -896147.529048021 -182498.096630951
 1026723.09048498 -693021.203804228 -238978.529290091
 1154771.66858252 -428916.686915371 -272180.638627428
 1226145.12103557 -126735.639914452 -268431.836142972
 1228484.66574985 173025.679249972 -228991.203447902
 1170761.83912916 437922.969163930 -170556.794166949
 1071383.13897090 656625.896383813 -111937.628373865
 947511.011874832 830346.672970945 -65549.3400498335
 814773.082385525 962451.465250116 -37167.6226956743
 691723.101944192 1054653.95754918 -27813.8631174797
 605457.282056901 1106283.01221543 -33298.7598384221
 185902.051977679 -1247190.70801030 38796.8535092721
 227267.828035196 -1240798.39033449 17835.9132777450
 302091.575914590 -1224682.85683683 -21024.0540900512
 409958.334628026 -1190435.31731105 -79670.2584814900
 552132.135416384 -1123028.58567478 -159707.018370493
 726179.805290060 -998799.518148995 -258092.703990601
 916768.565850616 -788317.193660568 -360056.703543047
 1085482.65041407 -475171.062109637 -433000.356007462
 1178954.90244358 -92048.8383036391 -439478.987313554
 1171223.26842483 279310.840068109 -376524.821279617
 1085436.33004888 578257.113823098 -281062.474624319
 959754.072879044 796514.919022205 -189698.535276609
 821354.025994207 949991.439508400 -120180.113840936
 687335.277766331 1055102.52561630 -76670.1199616488
 572492.972003608 1122731.72639232 -57224.9812368909
 496219.624947745 1158511.34511888 -56275.9092908078
 93793.1639214389 -1257909.58574621 20389.8849522583
 119214.103758871 -1255920.94822880 13.5648224611356
 169785.603942256 -1249381.44000358 -42051.1234986664
 250740.000554982 -1231349.25827659 -111614.905735447
 370442.723489312 -1186411.29527507 -216217.154676722
 536504.105989357 -1083578.62554979 -359958.521814864
 743330.868514901 -871537.712259459 -528612.019293342
 947067.986769518 -502757.698047163 -664715.244604487
 1062027.29513976 -18719.4290529597 -680659.267382000
 1043151.66501526 427923.009870044 -565920.429317232
 936299.525365008 742350.567597048 -404732.336870375
 800886.375659928 938319.176808973 -263984.027232312
 667417.613247034 1057934.25323871 -163945.955335382
 548302.901821671 1131550.52721126 -102502.503095381
 451763.083365582 1175692.91369570 -72150.6764534677
 389733.231474826 1198109.40283728 -64740.2350631756
 1487.49509854588 -1261562.61478273 -2643.34255247683
 10337.5021716979 -1261322.72470216 -22528.8951729566
 33439.7361634032 -1259302.76728592 -67732.9703341825
 78561.5357298384 -1250401.12634975 -147900.436936476
 157111.308172089 -1220595.67359356 -277509.764455416
 283682.550139081 -1135128.17818675 -471760.172918373
 466678.634942081 -921839.899515853 -723858.882841229
 674343.755572819 -491650.298206150 -946091.916524342
 805127.759733340 104224.700481380 -965637.578615960
 795113.293214891 610926.729931908 -765580.049718271
 702856.199073559 911563.534837085 -516327.915474403
 593180.960380700 1066409.79787895 -320087.366430726
 490936.858138997 1146445.73592912 -190243.546039048
 402671.235337709 1190230.99663349 -112940.169131331
 332231.744187632 1214815.33636953 -73452.0087838873
 287104.585467831 1226965.25147986 -60635.4647320601
 -92140.6730363146 -1257922.82800056 -26261.8751507932
 -100831.520930484 -1256720.69976971 -45116.7161497324
 -108300.752502261 -1253547.06195306 -91870.2421638572
 -106910.005815422 -1244227.81093652 -178932.490251512
 -87334.3370630825 -1215562.60766718 -326082.338267600
 -36130.7319798441 -1130722.61866116 -558310.272853373
 63746.3315480491 -903427.815637822 -878239.157670046
 213400.752926204 -413717.880210711 -1172538.72650904
 350961.060642047 266322.009369174 -1182137.19684203
 402542.332885255 790082.329024359 -897373.397487185
 387475.680365256 1052708.67981476 -577249.048060801
 347036.447142227 1163358.04270295 -343093.572880936
 300318.356911877 1209671.38324713 -195072.960642140
 254673.603920408 1230820.00531626 -108502.999490454
 215054.572866843 1241484.45181587 -63382.3122602893
 188097.799723958 1246588.73939992 -46745.7319899644
 -188097.813239352 -1246588.73377854 -46745.8275138270
 -215054.577800555 -1241484.44586813 -63382.4120200657
 -254673.598340745 -1230819.99635292 -108503.114263696
 -300318.330989200 -1209671.36683426 -195073.102328742
 -347036.386420027 -1163358.00524090 -343093.761326838
 -387475.572978332 -1052708.58432663 -577249.294282019
 -402542.159783213 -790082.099288940 -897373.677404905
 -350960.798129760 -266321.599967990 -1182137.36701179
 -213400.448140130 413718.287014502 -1172538.63844324
 -63746.0842662103 903428.043534840 -878238.941185421
 36130.8992938376 1130722.71504874 -558310.066815911
 87334.4346172665 1215562.64333460 -326082.179179490
 106910.059238061 1244227.82368211 -178932.369704145
 108300.777428517 1253547.06667927 -91870.1482916366
 100831.529921586 1256720.70194021 -45116.6355963947
 92140.6769571671 1257922.82928838 -26261.7997088448
 -287104.614800120 -1226965.23904282 -60635.5775104111
 -332231.767783364 -1214815.32275087 -73452.1272951617
 -402671.251689998 -1190230.97879206 -112940.298853239
 -490936.864356313 -1146445.70767442 -190243.700263223
 -593180.948251399 -1066409.74665231 -320087.559576244
 -702856.162136595 -911563.427083254 -516328.155991713
 -795113.206132257 -610926.505433135 -765580.319308362
 -805127.584613956 -104224.334765598 -965637.764099623
 -674343.500035015 491650.661497411 -946091.909873791
 -466678.387907379 921840.121239576 -723858.759739859
 -283682.364377215 1135128.28178736 -471760.035342951
 -157111.185718806 1220595.71586914 -277509.647837471
 -78561.4615181807 1250401.14198475 -147900.344172368
 -33439.6918322469 1259302.77229250 -67732.8991372146
 -10337.4771867290 1261322.72602730 -22528.8324468398
 -1487.47899087378 1261562.61492776 -2643.28239649979
 -389733.278657845 -1198109.38025791 -64740.3688865547
 -451763.127307310 -1175692.88843519 -72150.8129364104
 -548302.941736411 -1131550.49472650 -102502.648191987
 -667417.646981705 -1057934.20729159 -163946.114497038
 -800886.400579596 -938319.104556942 -263984.208446399
 -936299.530265639 -742350.446244025 -404732.548116154
 -1043151.63715687 -427922.797936793 -565920.640922250
 -1062027.19152000 18719.7276203479 -680659.420847845
 -947067.806767316 502757.989996501 -664715.280250557
 -743330.665338287 871537.916318122 -528611.968561589
 -536503.937169253 1083578.73444875 -359958.445617403
 -370442.598896074 1186411.34736973 -216217.082290956
 -250739.913672733 1231349.28148714 -111614.844852448
 -169785.545989431 1249381.44959657 -42051.0724714817
 -119214.066038919 1255920.95180876 13.6089681800202
 -93793.1389829073 1257909.58687026 20389.9303228298
 -496219.688157158 -1158511.31038449 -56276.0669857329
 -572493.036654881 -1122731.68547181 -57225.1372934863
 -687335.334319426 -1055102.47734888 -76670.2772084512
 -821354.077638655 -949991.374566647 -120180.274231175
 -959754.116000555 -796514.827007929 -189698.703462822
 -1085436.35529440 -578256.983288619 -281062.645689720
 -1171223.26286487 -279310.652314068 -376524.977852731
 -1178954.83927141 92049.0778146630 -439479.106614794
 -1085482.52766665 475171.297167889 -433000.405770209
 -916768.414512738 788317.371105152 -360056.700374561
 -726179.665345479 998799.628315076 -258092.671409606
 -552132.017538708 1123028.64847428 -159706.984298178
 -409958.245904797 1190435.35010856 -79670.2249621806
 -302091.509126971 1224682.87378333 -21024.0265921021
 -227267.782069814 1240798.39840171 17835.9377599093
 -185902.021812707 1247190.71170341 38796.8793286047
 -605457.365323059 -1106282.96106445 -33298.9452307423
 -691723.180470349 -1054653.90131030 -27814.0426744078
 -814773.155218557 -962451.396936620 -37167.7950502728
 -947511.073292102 -830346.589959609 -65549.5038139144
 -1071383.18696038 -656625.791986845 -111937.781446796
 -1170761.86871913 -437922.835183149 -170556.935061003
 -1228484.66590731 -173025.513679585 -228991.327708020
 -1226145.08068663 126735.830643323 -268431.930399661
 -1154771.58592653 428916.873096583 -272180.695914912
 -1026722.98253592 693021.355852503 -238978.552141953
 -869001.315666669 896147.637368941 -182498.099515085
 -707105.164676510 1037982.26908013 -118930.761714667
 -558009.908920123 1129877.14236347 -59598.7888339081
 -431729.540116965 1185348.07321196 -10439.3698105693
 -335470.946850850 1215865.74090871 26060.9827610733
 -278125.685962812 1229583.85621051 48156.7676776987
 -713128.186077391 -1040662.79430878 4309.25543035922
 -803681.977905032 -972332.605548061 14629.2001739039
 -924182.458739584 -858660.935954675 11730.7690478033
 -1043161.09229814 -709437.501120482 -7924.54656307489
 -1143448.91154266 -531344.232975967 -41801.0011130144
 -1215186.01966235 -328309.008927044 -84175.7874538821
 -1250926.74424202 -103461.888627178 -126599.166903660
 -1244109.51900645 136069.119871149 -158827.359903694
 -1191963.53832072 375685.910512083 -172140.787948717
 -1099164.91203071 597150.933901312 -163696.943222127
 -976603.094443684 786771.250497460 -137065.043802703
 -837108.434007282 938618.575251830 -98964.9979793525
 -693083.807507467 1052619.89357275 -56352.6959851550
 -556756.156322681 1131964.17548422 -15136.6685925628
 -442034.984679187 1181421.08409302 19968.1070484885
 -368063.899321837 1205879.47004628 43967.0405630269
 -809567.345068599 -966104.764407749 52836.8139291132
 -898391.303417751 -883316.803257489 64760.4967961057
 -1007979.98540649 -756033.824254464 62758.5573611901
 -1107856.69205729 -601858.445547218 44377.8357552576
 -1185353.18034434 -431634.559155068 13374.4573541142
 -1236104.72363612 -250969.232520636 -24677.6711103570
 -1258421.39782699 -62399.6202446680 -63492.5491962429
 -1250985.83434464 131319.194314877 -96639.2383687195
 -1213200.54134865 324983.834414524 -118656.583296228
 -1146246.62364321 511548.250586908 -126437.715998665
 -1053065.38438965 684313.365105327 -119657.617632413
 -937816.631604916 837865.280757025 -100155.717291203
 -806368.072183999 967598.199159835 -71229.8256621467
 -668177.393924171 1069441.71259784 -37186.3486167679
 -539325.492706967 1140468.07583452 -3164.14880253849
 -447945.216977114 1179129.32039440 23421.3426712218
 -877834.220123303 -900577.204522286 99585.1976665725
 -960800.382897845 -810217.520658265 109360.067486633
 -1057897.05537889 -679453.887074074 103661.306568791
 -1142480.65441879 -528803.922812316 81570.8061507125
 -1205206.47013817 -369798.976060123 47702.3328667439
 -1244363.52670311 -207488.906082302 7562.94801809854
 -1260380.22894370 -43208.3602249833 -33528.3016786070
 -1253608.22299333 122560.925773497 -70673.0050019335
 -1224086.26088695 288475.828102797 -99719.3733792650
 -1171843.23748742 452188.171820405 -117723.043367396
 -1096905.52478191 610882.901281647 -123165.667065079
 -999369.442248524 761170.077610198 -115889.006250434
 -880551.813117798 898197.432079571 -97053.1212253190
 -745879.397111883 1015095.17067379 -69247.0241794977
 -609565.432258276 1103913.63457006 -36798.1266515831
 -502317.321680323 1157223.66772144 -7753.84576850268
 513644.277580346 -1152088.68790270 20264.3093779263
 627786.270263020 -1094262.81598639 -4766.48064533624
 769330.206515035 -999099.784062253 -38471.8825799596
 905064.548541759 -876031.698916837 -70541.1680136959
 1021320.35054765 -734488.059214647 -94770.5827104794
 1114047.01195068 -582118.488058489 -107641.776012893
 1183322.48588960 -423934.460414073 -107595.997046539
 1230206.35536315 -263050.851905029 -94583.3148875311
 1255516.18843903 -101688.189950501 -69914.5443458215
 1259681.24146710 58631.3142732680 -36262.5123433086
 1242675.42019525 217487.452786785 2537.48730369454
 1203719.36055528 375302.510597526 41918.4623112990
 1141522.72341590 531557.872586057 76951.4842995010
 1056500.73930335 681758.850987842 102764.234391945
 956669.515378008 814181.507234239 115936.804092333
 869410.379510645 906491.145802651 118105.145948460
 457342.443297714 -1175190.64039784 36252.9888251450
 554070.042274079 -1133311.23189106 12707.1178052031
 688148.142379135 -1057122.94223290 -22195.7217491463
 828603.865207971 -949434.209786034 -59495.7710205891
 959038.057419218 -814389.359964006 -92549.4771349031
 1070617.25106585 -657134.766362047 -116198.242144442
 1158529.36574940 -483015.962151058 -126707.221272271
 1219857.89240800 -297684.847875403 -121983.132417029
 1252826.66372997 -107450.574023226 -102123.237846601
 1256980.07618897 81581.3698228905 -69964.2700294052
 1232967.90474303 265324.485988400 -30700.0639661507
 1181574.49782814 441975.526427931 9421.83845521427
 1103577.74582891 609678.669253552 44243.7576087630
 1002210.88523128 763173.824847256 68472.5164639192
 889260.768447929 891348.665945485 79134.5205050120
 796643.858875511 975022.988201440 78982.0581754163
 375660.884288759 -1203384.11081127 47906.2916673066
 453862.872580015 -1176816.12983426 25723.9261057079
 573611.629092300 -1123566.00391461 -10888.7435633420
 713356.943060304 -1039020.50658996 -55746.6554347023
 858182.188337693 -918959.616878807 -102888.216452799
 995423.674979624 -761266.400109782 -145446.231552792
 1112937.88925030 -567486.853594037 -175719.539573673
 1199108.88151612 -344839.857907076 -186474.645962263
 1244921.25177634 -107227.305273783 -173847.096030671
 1247141.90375545 128275.652951797 -140470.138022170
 1208712.98931544 348630.774598947 -94968.0124127677
 1135444.18072503 547753.652623492 -47769.0214914501
 1033810.73599811 722997.677271820 -7691.01511910334
 912821.159716369 870593.428983143 19340.1836699971
 789231.237931045 983712.429760183 31198.3898318887
 695989.714459612 1051732.58244533 31722.5993301236
 285285.498148492 -1227939.81475031 48222.6794785791
 346309.240638617 -1212810.61547032 26641.1668245399
 447365.375818549 -1179514.92129176 -12577.8331908558
 577743.559697814 -1119508.64376555 -66799.7506048370
 728956.326319145 -1021084.36292408 -132509.731831974
 889564.644904029 -871314.974404390 -202569.466688344
 1041642.00538495 -660848.729034995 -264216.428083891
 1160651.07539636 -392934.139933665 -300068.781739809
 1222890.16002614 -91897.7512319894 -296047.109002448
 1218978.16441936 203563.294710308 -253384.393036452
 1158023.58860559 463486.853515031 -188972.844003368
 1057059.81435688 677618.006700854 -122506.394876012
 932112.352097416 847438.339749918 -67559.2651549574
 798135.644043123 976520.527975617 -30603.6447020075
 673332.315365319 1066779.76814728 -12407.6700218438
 585707.062834500 1117331.16108688 -8230.67002005853
 193951.471692335 -1245989.53753151 37978.0187653316
 238711.584050800 -1238669.87113200 16222.2350107790
 318172.451110762 -1220492.47827688 -26717.6485246771
 430501.592379547 -1182247.45039839 -92243.0263170378
 575509.444208857 -1107923.62954754 -181227.872126714
 748357.138401821 -973605.840562718 -289141.300308612
 931053.725318498 -752184.701550469 -398630.864639120
 1085678.18358639 -432924.546055815 -474793.270830449
 1165408.57058690 -52093.6933779915 -480269.238689923
 1150426.34084079 312919.700065686 -412492.335115956
 1062756.69235263 605885.788364075 -308220.789754840
 937335.386173806 818886.776037836 -205854.931385464
 799761.712635069 967567.228005075 -125476.265534764
 666486.542143092 1068692.25502006 -72401.5477819947
 551809.737572301 1133616.11200806 -44384.1755030043
 475477.874502791 1168009.27541172 -34993.6326987066
 103668.811127376 -1257132.25879658 20510.7876838077
 132295.703059852 -1254608.96788545 -1901.46581867391
 187446.862908661 -1246589.30398958 -49276.8879235335
 273183.737487143 -1225027.19973440 -127390.880373746
 396189.866001006 -1172759.72133199 -243346.783455993
 560518.189590914 -1057350.84235014 -399221.725658977
 755326.021748443 -830073.536019437 -576203.051526815
 936104.050002005 -454319.178080608 -713339.135977382
 1030449.60689375 21194.0932729747 -727512.095419598
 1005493.90438853 457019.975617665 -609642.666685070
 901276.165263027 765753.994529071 -439171.406981941
 770143.230118508 957622.917953994 -285284.389742695
 640632.793900160 1073004.01952237 -172630.902179933
 524746.508277119 1142804.30394413 -100939.862575242
 430287.153819855 1184277.68724148 -62359.8883781570
 369309.837172758 1205357.61072842 -47672.8994866757
 13717.7313081219 -1261491.62266082 -375.131038137147
 25600.8845200852 -1261088.85802202 -23428.9949304251
 53313.8284359392 -1258211.88801694 -74899.3422488584
 103708.823257972 -1246450.77420449 -164785.856135876
 186465.183271302 -1209294.81864863 -307223.384422695
 311840.458645545 -1109040.33017710 -514134.715139300
 480087.450137638 -876273.769182474 -770201.111776680
 655537.323348677 -441781.136644921 -983183.439608564
 757494.829955541 131176.392214525 -1000271.84686722
 743000.012333476 622323.520402618 -807597.578342765
 658178.947635402 922509.039396222 -554370.792918214
 556632.184449951 1078212.32514952 -345207.508680049
 461123.779490236 1156770.52058097 -201980.824887986
 378102.169636011 1198150.01001647 -114125.955562421
 311205.159547318 1220753.50999512 -66795.5644086487
 267973.816348561 1231850.77842925 -47782.0505399101
 -77381.3424238624 -1259015.75321008 -20997.4268061848
 -83258.6063456562 -1258044.79537725 -44053.6969226823
 -86109.0715770565 -1254822.88880961 -97745.4675706179
 -78832.5480363405 -1243888.96402132 -195128.433281813
 -53339.6669973105 -1209247.09565827 -355564.020234905
 421.036094893097 -1110200.07827680 -599170.292856508
 91494.1170668760 -863549.363451587 -915128.818442226
 212047.900366712 -377808.977639195 -1184839.86060744
 314902.470955810 262922.422860375 -1193003.63128622
 354009.583151969 772935.997043597 -932092.586833381
 342493.622455372 1046166.15604379 -616266.114146240
 309583.280008671 1165424.54986040 -370800.812082051
 270241.918677605 1214363.61571976 -209379.428608504
 230699.579273134 1235202.48515298 -112258.432707979
 195436.767694737 1244905.01005639 -59711.1102599723
 170944.551912306 1249356.64812997 -37886.1038364676
 -170944.561838187 -1249356.64352591 -37886.2108763342
 -195436.771123585 -1244905.00400168 -59711.2252706048
 -230699.574050157 -1235202.47424341 -112258.563481728
 -270241.897507522 -1214363.59330705 -209379.585922024
 -309583.226484776 -1165424.50045526 -370801.012049355
 -342493.533123814 -1046166.03704867 -616266.365797458
 -354009.434351140 -772935.743469052 -932092.853624189
 -314902.255133134 -262922.015229536 -1193003.77809069
 -212047.652125016 377809.387086020 -1184839.77447455
 -91493.9068577867 863549.615245374 -915128.601856820
 -420.888123562867 1110200.19465775 -599170.077318643
 53339.7586104556 1209247.14237885 -355563.847598319
 78832.5981785455 1243888.98285462 -195128.292967142
 86109.0990943955 1254822.89553050 -97745.3570486312
 83258.6153708733 1258044.79808404 -44053.6025675283
 77381.3482707296 1259015.75432657 -20997.3383137330
 -267973.841404420 -1231850.76816250 -47782.1747033421
 -311205.183805204 -1220753.49662784 -66795.6956893161
 -378102.185845525 -1198149.99118869 -114126.099522954
 -461123.785215793 -1156770.48878238 -201980.993931105
 -556632.177770521 -1078212.26259230 -345207.714839902
 -658178.914835383 -922508.913345154 -554371.041617268
 -742999.940902831 -622323.274367274 -807597.833651217
 -757494.677278191 -131176.016659968 -1000272.01173850
 -655537.107123821 441781.501591363 -983183.419792241
 -480087.231755817 876274.008167634 -770200.976001601
 -311840.285368763 1109040.44957773 -514134.562678390
 -186465.068328636 1209294.87047424 -307223.250189223
 -103708.750847594 1246450.79454840 -164785.747825035
 -53313.7819553826 1258211.89520351 -74899.2546088236
 -25600.8584451501 1261088.85992591 -23428.9209438615
 -13717.7108659433 1261491.62290289 -375.064491142608
 -369309.883068455 -1205357.59095771 -47673.0438249959
 -430287.195924134 -1184277.66413528 -62360.0366660484
 -524746.547322429 -1142804.27220099 -100940.018978099
 -640632.826651670 -1073003.97210428 -172631.075370822
 -770143.255157078 -957622.839259256 -285284.586306470
 -901276.175130326 -765753.858061057 -439171.624682208
 -1005493.87886128 -457019.747017448 -609642.880158182
 -1030449.51346169 -21193.7873586088 -727512.236668853
 -936103.886807303 454319.482681121 -713339.156137929
 -755325.832350959 830073.752956556 -576202.987283911
 -560518.028430100 1057350.96305533 -399221.632241743
 -396189.739541814 1172759.78239279 -243346.695072588
 -273183.651511110 1225027.22693779 -127390.803149704
 -187446.802447249 1246589.31568172 -49276.8221320953
 -132295.662160595 1254608.97227974 -1901.41200965415
 -103668.781320252 1257132.26041686 20510.8390302359
 -475477.937912898 -1168009.24467479 -34993.7970401220
 -551809.797553618 -1133616.07630738 -44384.3416109603
 -666486.598588628 -1068692.20819786 -72401.7193021276
 -799761.762681696 -967567.164243806 -125476.438220166
 -937335.431124481 -818886.679314268 -205855.111472335
 -1062756.71947580 -605885.648673763 -308220.970829648
 -1150426.33654804 -312919.501486465 -412492.497731866
 -1165408.51269303 52093.9407625652 -480269.352340325
 -1085678.06936497 432924.787866547 -474793.311525764
 -931053.582195998 752184.888004851 -398630.847095507
 -748356.997541145 973605.962171751 -289141.255399115
 -575509.327662442 1107923.69818167 -181227.822643051
 -430501.498395246 1182247.48822982 -92242.9800725864
 -318172.383353021 1220492.49683236 -26717.6077958192
 -238711.532355994 1238669.88062385 16222.2709416140
 -193951.434411779 1245989.54231432 37978.0522397587
 -585707.142183732 -1117331.11807233 -8230.86272205011
 -673332.393717490 -1066779.71651397 -12407.8573492735
 -798135.713935208 -976520.465212972 -30603.8246029866
 -932112.413638996 -847438.258068555 -67559.4406487511
 -1057059.86531752 -677617.897952450 -122506.556675011
 -1158023.61957275 -463486.716191899 -188972.991044326
 -1218978.16596205 -203563.126214477 -253384.520980520
 -1222890.12252763 91897.9475554402 -296047.202956582
 -1160650.99864262 392934.328234543 -300068.832043114
 -1041641.90268769 660848.886129141 -264216.440037332
 -889564.533783409 871315.089314687 -202569.460398649
 -728956.218983391 1021084.44145975 -132509.717127569
 -577743.469576560 1119508.69127238 -66799.7338781847
 -447365.301567414 1179514.94958528 -12577.8208481403
 -346309.183631270 1212810.63151549 26641.1774252381
 -285285.453548095 1227939.82472093 48222.6894432781
 -695989.817766713 -1051732.52085674 31722.3746956762
 -789231.330830442 -983712.362161350 31198.1711883750
 -912821.242510514 -870593.346612569 19339.9838273374
 -1033810.80026573 -722997.583487880 -7691.19259722674
 -1135444.22706820 -547753.543201599 -47769.1746479195
 -1208713.01555080 -348630.647143668 -94968.1463925402
 -1247141.90637357 -128275.507788546 -140470.247338828
 -1244921.22687371 107227.456899050 -173847.180837549
 -1199108.82930705 344840.005306263 -186474.709108776
 -1112937.81700331 567486.983646809 -175719.577151518
 -995423.589313883 761266.508425691 -145446.250916884
 -858182.102780696 918959.694728335 -102888.234753356
 -713356.860177800 1039020.56279487 -55746.6684713841
 -573611.552141745 1123566.04303061 -10888.7610415689
 -453862.808241102 1176816.15503883 25723.9082192639
 -375660.831175721 1203384.12810168 47906.2738299822
 -796643.985905905 -975022.906294059 78981.7880323864
 -889260.881386917 -891348.575479115 79134.2703591143
 -1002210.97542698 -763173.726229054 68472.2954654907
 -1103577.81214089 -609678.562701069 44243.5718725077
 -1181574.53998435 -441975.416966631 9421.68652146681
 -1232967.92603616 -265324.372474295 -30700.1898391523
 -1256980.07797414 -81581.2503694899 -69964.3772445532
 -1252826.64572491 107450.696455162 -102123.329910069
 -1219857.85581476 297684.968138244 -121983.204870611
 -1158529.31411620 483016.071602610 -126707.276136734
 -1070617.18858922 657134.859949496 -116198.288521894
 -959037.987628787 814389.437522980 -92549.5178533342
 -828603.791526251 949434.271459541 -59495.8130070125
 -688148.068703855 1057122.98919053 -22195.7694840844
 -554069.972496857 1133311.26655458 12707.0687703565
 -457342.377740533 1175190.66752409 36252.9365138687
 -869410.525466948 -906491.045966180 118104.837789904
 -956669.641827649 -814181.398102722 115936.527064633
 -1056500.83414815 -681758.739704646 102763.997584539
 -1141522.78652900 -531557.765034207 76951.2909954246
 -1203719.39941203 -375302.403227396 41918.3078122283
 -1242675.43936493 -217487.344725287 2537.36132216520
 -1259681.24324014 -58631.2079255601 -36262.6227004101
 -1255516.17451144 101688.296012695 -69914.6401917482
 -1230206.32726423 263050.952871475 -94583.3995551952
 -1183322.44561772 423934.554878121 -107596.067755895
 -1114046.96061508 582118.575282230 -107641.835615327
 -1021320.29178015 734488.133428992 -94770.6408602767
 -905064.480660486 876031.763930323 -70541.2315659819
 -769330.131677999 999099.838968405 -38471.9532201624
 -627786.194468133 1094262.85913481 -4766.55769747407
 -513644.206115291 1152088.72116379 20264.2298235102
 535473.067827869 -1140930.37603162 55640.8267220213
 653538.373697454 -1078613.91219181 32078.8629804326
 798499.339078600 -976696.043693599 -3615.88761753670
 934213.797114167 -846832.691097390 -40846.1196349873
 1046917.66416444 -700252.324561227 -71829.7802169382
 1133818.06222220 -545502.154205277 -91833.7217750583
 1196460.16449005 -387698.510529119 -98602.0823354486
 1237114.97034734 -229545.765183592 -91677.2749798028
 1257418.07174632 -72525.0268402294 -72037.1032632202
 1258148.34612658 82762.4346632909 -41982.7281927030
 1239130.24792864 236815.085670274 -4926.94491921244
 1198990.81809575 390825.831927602 35008.8294453356
 1135501.70402645 544796.243450843 73364.5976874067
 1048014.72647119 694290.211995862 105715.020433243
 944103.970025085 826855.415798159 128558.337213429
 852858.822072171 918905.845392387 140688.691216901
 476952.764859109 -1166478.95859172 58243.7136091479
 577770.643679279 -1120920.02584037 35620.3578224731
 716362.748198463 -1038447.13639699 -1178.48266619449
 858523.553797890 -923377.846997317 -43128.7626508687
 986866.546387268 -781589.470039404 -82229.8660107350
 1093139.24169550 -619698.086006790 -112117.400004915
 1173895.03458812 -443918.474448355 -128281.981321442
 1227808.30748449 -260013.254201346 -128176.825638100
 1254465.18639919 -73613.5010973142 -111568.720919393
 1254117.75115493 110401.409463375 -80929.7593320910
 1227288.15730280 289183.540350182 -41062.0244724568
 1174009.82367522 461785.662508055 2089.67342380514