# OOMMF OVF 2.0
#
# Segment count: 1
#
# Begin: Segment
# Begin: Header
#
# Title: Oxs_MinDriver::Magnetization
# Desc: Oxs vector field output
# Desc:  MIF source file: C:/Users/grl31/Documents/GitHub/phd-work/Skyrmions/stdprob3/drive-127/stdprob3.mif
# Desc:  Iteration: 641, State id: 1323
# Desc:  Stage: 0, Stage iteration: 641
# Desc:  Stage simulation time: -1 s
# Desc:  Total simulation time: -2 s
# meshunit: m
# meshtype: rectangular
# xbase: 3.1249999999999999e-09
# ybase: 3.1249999999999999e-09
# zbase: 3.1249999999999999e-09
# xnodes: 16
# ynodes: 16
# znodes: 16
# xstepsize: 6.2499999999999997e-09
# ystepsize: 6.2499999999999997e-09
# zstepsize: 6.2499999999999997e-09
# xmin: 0
# ymin: 0
# zmin: 0
# xmax: 9.9999999999999995e-08
# ymax: 9.9999999999999995e-08
# zmax: 9.9999999999999995e-08
# valuedim: 3
# valuelabels: Magnetization_x Magnetization_y Magnetization_z
# valueunits: A/m A/m A/m
#
# End: Header
#
# Begin: Data Text
 500673.561014472 -1157757.43607877 -21751.6763572718
 605885.980239320 -1105441.17462629 -49511.8097955650
 740654.946079134 -1018084.87291531 -80516.2921927964
 874866.224284008 -902603.220874920 -107079.158533384
 994206.508048712 -766457.441898669 -125083.332345633
 1092857.06095082 -616267.667349621 -132011.504909068
 1169081.04882541 -456900.396459764 -126652.911183025
 1222467.71254367 -291940.277165628 -109055.019488630
 1252816.83376852 -124487.436987825 -80636.7780691435
 1260062.07284257 42781.0852055907 -44303.2984242131
 1244267.14997327 208160.321104337 -4239.23744098980
 1205346.24153302 370801.609074552 34583.7483349321
 1143308.02646306 529086.600055170 66809.8584502885
 1060375.03522236 677922.993376353 87032.3540287459
 966126.741620993 806149.772802844 90945.5543370917
 886399.517992591 894121.791737484 79947.1510537294
 447841.609604423 -1179358.17225203 10080.9309205852
 537903.451320984 -1141036.68687159 -15639.2835204856
 665431.850325280 -1070693.78649728 -48628.1713387053
 802829.415847869 -969709.803324654 -81714.4865025991
 934168.249563759 -840706.312541986 -109963.668900205
 1049885.77593449 -687459.778239383 -129183.364689297
 1143853.85481463 -514427.565868505 -136059.065185916
 1211619.94268143 -327074.626092210 -128641.884245524
 1250025.10152152 -132319.710298174 -107136.225207358
 1257809.88748429 62458.9096584525 -74582.8564080078
 1235673.96122680 251655.136007979 -36455.2463414944
 1185246.26884653 432134.407085402 753.204681467351
 1108695.45521913 601165.357762065 30725.0894579460
 1010841.10471383 753291.681835318 47972.2213119719
 904379.878798483 878207.559092855 48968.8563840981
 818745.119342946 959102.093534689 36455.9274801249
 369296.471420896 -1205881.25219361 31936.6986866032
 442672.145070123 -1181321.59578420 8371.99091250933
 556611.674655492 -1131831.15222779 -26289.1118691329
 692164.259992001 -1052593.36311990 -67121.3827674379
 835585.762582431 -938804.587625287 -109507.125531660
 974763.997094939 -787142.394956451 -147619.209280749
 1097296.80209839 -597529.454326318 -174492.722587771
 1190248.01517730 -375843.223188908 -183305.659673748
 1242605.15368915 -135860.942207963 -170363.339150438
 1249631.28168119 103979.791146803 -138417.100807115
 1214176.98428859 328746.710496541 -96173.1879502973
 1143100.23948357 530999.683653726 -53950.0636812501
 1044255.67384502 707579.308896935 -20274.1259338386
 927737.885364615 854898.296766241 -865.542793327848
 810444.896440635 966811.863128628 1822.65356949753
 722765.544846239 1033966.00909182 -8584.29640741624
 279911.562474040 -1229545.93402932 37626.3767091755
 337218.770762268 -1215561.41488319 15600.5836976952
 433326.282267418 -1184624.38924418 -21043.2987696628
 559219.037893219 -1128650.08137184 -70515.9017249100
 707640.407870262 -1036253.21833796 -130283.351017640
 868620.726742076 -894022.032349130 -194350.378613865
 1025314.55776682 -690746.542464967 -251294.056083864
 1152463.42369298 -426911.248289726 -284823.232992876
 1223407.77977763 -125404.691784012 -281240.997326284
 1225962.27000414 173570.998136238 -241741.705237731
 1169008.55467707 437611.013228179 -182934.499513314
 1070968.85624423 655185.026069502 -123724.377097546
 949134.715945158 827531.125172835 -76713.4849738958
 819080.663094166 958316.520235277 -47809.4688145159
 698952.053794571 1049554.63603075 -38085.7375097985
 615020.611537322 1100644.84922530 -43358.8996289168
 187406.100978858 -1247217.40426416 29616.3930183987
 229089.742537954 -1240562.83055054 8437.07527975203
 304265.590842216 -1223930.69621306 -31073.0110515246
 412240.694043113 -1188855.56885558 -90716.4676057901
 554002.529786886 -1120299.94569517 -171926.320219123
 726858.855345036 -994778.536087836 -271369.304572937
 915391.390492555 -783459.323271674 -373897.742584455
 1081731.64336263 -470933.098598605 -446797.604415304
 1173938.07816632 -90062.8291210585 -453108.713622712
 1166873.99100668 279029.773628658 -389996.032620624
 1082925.34364877 576592.551715039 -293876.096865462
 959501.598572047 793953.741081138 -201354.340106950
 823567.138604706 946701.285572531 -130549.894771031
 692091.841437569 1051271.98230774 -85939.1246712178
 579610.919605285 1118606.06486282 -65734.9560386019
 505068.847528856 1154256.22743623 -64400.7111724391
 94351.3440306080 -1257973.20628969 12274.6509441194
 120271.769202969 -1255791.08912287 -8536.56437541049
 171490.319972204 -1248788.59676882 -51648.2492920715
 252940.034187005 -1229834.68672040 -122790.119161815
 372600.018432071 -1183288.11416913 -229233.278669218
 537501.082495190 -1078158.25123803 -374455.341159418
 741427.534311091 -864122.102362457 -543256.508928350
 941046.323251238 -496292.994818005 -677993.002699036
 1053859.77225475 -17096.9535471803 -693279.673379744
 1036785.39321405 425530.863203581 -579265.883509591
 933274.521555684 738828.157346227 -417948.623931628
 800896.747230910 934890.972600760 -275849.053910844
 669937.910800491 1054721.93093912 -174052.506409104
 552940.304066407 1128480.98583625 -111072.569358706
 458148.005199194 1172732.41879352 -79677.5386270516
 397338.141350753 1195207.99000032 -71761.3613741776
 650.665535355694 -1261526.59912912 -9982.34656951021
 10070.2391950568 -1261158.57191962 -30447.9502622214
 33945.3148748989 -1258758.70960419 -76965.3007048319
 79795.3972867441 -1248945.53613866 -159113.711697371
 158680.884725911 -1217244.22949491 -291009.095223678
 284518.621973897 -1128557.89394852 -486780.920615737
 464602.910660291 -911933.953483765 -737611.029478551
 667123.057029465 -483378.780120436 -955427.240886450
 795154.353184667 103686.539427255 -973924.066378908
 787990.905726585 605024.434509357 -777537.907151659
 699910.772933043 906036.770287562 -529878.959516330
 593319.594913927 1062537.70515461 -332467.914745019
 493212.768694629 1143711.07145853 -200538.227624326
 406555.711164687 1188079.82938831 -121359.810641641
 337377.190255587 1212942.08242080 -80607.4879083199
 293122.399499009 1225199.51026594 -67192.6325946128
 -94635.1221685789 -1257576.84795298 -33077.1229663439
 -102720.771229058 -1256277.36582992 -52583.7824856926
 -109351.641083875 -1252771.78828590 -100769.519132404
 -107048.612042677 -1242576.23679497 -189985.055546870
 -86648.6318511863 -1211917.78169565 -339553.730545196
 -35053.0306907008 -1123405.65610342 -572957.631761023
 63931.6519273184 -892172.754150921 -889657.210138578
 210413.171194549 -405646.749759116 -1175893.89092582
 345109.093229355 261698.285629415 -1184889.51045572
 397888.803713738 780395.606909134 -907863.771452043
 385388.455930077 1045695.71519173 -591223.849471953
 346972.939901208 1159461.81440586 -356100.422395070
 301744.305483500 1207542.71416692 -205767.826662996
 257286.634322958 1229488.13359844 -117098.027559559
 218636.625022433 1240470.56338888 -70570.8047525843
 192363.372249809 1245675.28792795 -53280.7749687014
 -192363.456445368 -1245675.27922892 -53280.6743697463
 -218636.727938964 -1240470.55169151 -70570.6915175228
 -257286.772254544 -1229488.11744490 -117097.894103954
 -301744.494052924 -1207542.69705055 -205767.650585768
 -346973.195836878 -1159461.81170725 -356100.181805964
 -385388.816583750 -1045695.77027400 -591223.516956318
 -397889.311369201 -780395.818927679 -907863.366711805
 -345109.775103566 -261698.733905820 -1184889.21284608
 -210413.906994762 405646.266463775 -1175893.92598404
 -63932.2627631696 892172.479703805 -889657.441466151
 35052.5879353313 1123405.54741942 -572957.871946319
 86648.3192395955 1211917.74851970 -339553.928728337
 107048.390390140 1242576.23224259 -189985.210212921
 109351.481888904 1252771.79220486 -100769.643164366
 102720.659110457 1256277.37042847 -52583.8916417218
 94635.0337040543 1257576.85194380 -33077.2243380340
 -293122.477789806 -1225199.49774861 -67192.5192998541
 -337377.282294439 -1212942.06511237 -80607.3631345251
 -406555.828659766 -1188079.80374090 -121359.668113870
 -493212.916374478 -1143711.04075095 -200538.039545398
 -593319.776710443 -1062537.68605334 -332467.651358210
 -699911.001464608 -906036.808549985 -529878.592226861
 -787991.210554017 -605024.622485265 -777537.451956580
 -795154.794556392 -103686.950988563 -973923.662207481
 -667123.620298344 483378.301805523 -955427.089579626
 -464603.456143595 911933.624172019 -737611.093031325
 -284519.061515667 1128557.72407371 -486781.057547196
 -158681.211759676 1217244.15150812 -291009.243105292
 -79795.6363462977 1248945.50362490 -159113.847022114
 -33945.4836416345 1258758.69769123 -76965.4211056013
 -10070.3565575291 1261158.56829326 -30448.0616503775
 -650.755361605022 1261526.59825487 -9982.45119750746
 -397338.213831207 -1195207.97364775 -71761.2324115085
 -458148.086539589 -1172732.39652526 -79677.3986723662
 -552940.400669722 -1128480.95428340 -111072.409021317
 -669938.019080757 -1054721.89486798 -174052.308215659
 -800896.858794568 -934890.953599982 -275848.794394438
 -933274.637768387 -738828.199484858 -417948.289939320
 -1036785.53711241 -425531.043412662 -579265.493574073
 -1053860.00766398 17096.5968145633 -693279.324329523
 -941046.682681241 496292.567206325 -677992.816827245
 -741427.945202278 864121.763856742 -543256.486589155
 -537501.460075242 1078158.03769414 -374455.414023443
 -372600.326753012 1183287.99569844 -229233.389056802
 -252940.274153180 1229834.62573424 -122790.235667927
 -171490.497654744 1248788.56768268 -51648.3625889683
 -120271.892809658 1255791.07654155 -8536.67368116781
 -94351.4337041813 1257973.20063762 12274.5409062194
 -505068.914707864 -1154256.20650890 -64400.5593955930
 -579610.994883233 -1118606.03537889 -65734.7940085126
 -692091.919945916 -1051271.94490266 -85938.9499883560
 -823567.214177851 -946701.248307370 -130549.688255292
 -959501.661591283 -793953.727164395 -201354.094679711
 -1082925.39294267 -576592.601621796 -293875.817300326
 -1166874.05042479 -279029.939648572 -389995.736058626
 -1173938.19869834 90062.5378878467 -453108.459229183
 -1081731.86256477 470932.744899571 -446797.446515158
 -915391.679586913 783459.008532216 -373897.694311854
 -726859.157280848 994778.304629026 -271369.344317536
 -554002.801982708 1120299.79763911 -171926.407872755
 -412240.926598869 1188855.48042862 -90716.5696590206
 -304265.770854411 1223930.64873328 -31073.1185536896
 -229089.876994318 1240562.80650668 8436.95975700592
 -187406.205896227 1247217.39118216 29616.2800381096
 -615020.679920963 -1100644.81836752 -43358.7129565112
 -698952.121402290 -1049554.59797281 -38085.5455564050
 -819080.726721611 -958316.475635765 -47809.2727114566
 -949134.765148478 -827531.087935787 -76713.2778944377
 -1070968.88472339 -655185.020984000 -123724.157509689
 -1169008.56899320 -437611.069745439 -182934.272829532
 -1225962.29194283 -173571.145869739 -241741.487905372
 -1223407.84523575 125404.454175181 -281240.818530317
 -1152463.55782355 426910.963071449 -284823.117771429
 -1025314.75628286 690746.263220440 -251294.013686291
 -868620.956866744 894021.802512149 -194350.407367168
 -707640.641429796 1036253.04912331 -130283.428333894
 -559219.253498234 1128649.96824199 -70516.0026035036
 -433326.466244994 1184624.31988837 -21043.4146374184
 -337218.917441795 1215561.37574005 15600.4630475225
 -279911.682983959 1229545.91035337 37626.2538840053
 -722765.614646971 -1033965.96216239 -8584.07202554906
 -810444.958836718 -966811.810405187 1822.87579073573
 -927737.932470591 -854898.245866214 -865.325959801651
 -1044255.69997330 -707579.276222984 -20273.9204889003
 -1143100.24779954 -530999.685398909 -53949.8703041593
 -1214176.98279620 -328746.769795691 -96173.0040903606
 -1249631.28870864 -103979.921411065 -138416.939507712
 -1242605.19196358 135860.746360454 -170363.216166222
 -1190248.10121352 375842.989173090 -183305.580837041
 -1097296.93641080 597529.215511384 -174492.695757636
 -974764.168034551 787142.178079356 -147619.236969140
 -835585.954005144 938804.408144381 -109507.203584724
 -692164.453349612 1052593.22900137 -67121.4920770936
 -556611.854986461 1131831.06059658 -26289.2387927078
 -442672.303789214 1181321.53727997 8371.85376133192
 -369296.604082060 1205881.21522530 31936.5605405558
 -818745.185411714 -959102.027508557 36456.1807251719
 -904379.930200183 -878207.492564331 48969.1001952789
 -1010841.13626428 -753291.625023582 47972.4485952786
 -1108695.46746880 -601165.324943960 30725.2895530666
 -1185246.26517898 -432134.416831929 753.384078732053
 -1235673.95381079 -251655.195053953 -36455.0901098238
 -1257809.88916695 -62459.0299996487 -74582.7272515981
 -1250025.12767212 132319.537940438 -107136.132963958
 -1211620.00153153 327074.430098887 -128641.828279812
 -1143853.94992873 514427.358293764 -136059.050379995
 -1049885.90364458 687459.577291784 -129183.396135714
 -934168.403394645 840706.131731303 -109963.744422616
 -802829.585169971 969709.653316879 -81714.6030940802
 -665432.022052507 1070693.67333087 -48628.3131036408
 -537903.613898498 1141036.60812410 -15639.4371552014
 -447841.756088341 1179358.11800978 10080.7691722913
 -886399.574091423 -894121.711392191 79947.4276421572
 -966126.780225142 -806149.697575414 90945.8110625405
 -1060375.05269495 -677922.936596473 87032.5834245736
 -1143308.02630840 -529086.575519381 66810.0554027518
 -1205346.23224281 -370801.623316443 34583.9194266343
 -1244267.14008062 -208160.383191791 -4239.09235476596
 -1260062.07291176 -42781.2005401842 -44303.1850841758
 -1252816.85434025 124487.280517407 -80636.7000152185
 -1222467.75962003 291940.097227844 -109054.973472736
 -1169081.12080304 456900.214661347 -126652.902624757
 -1092857.16155613 616267.482183221 -132011.536457951
 -994206.633913868 766457.266628751 -125083.405904194
 -874866.373977139 902603.061870511 -107079.275796134
 -740655.106368956 1018084.74427537 -80516.4442973990
 -605886.143806822 1105441.07724156 -49511.9824775924
 -500673.724025031 1157757.36221075 -21751.8559363056
 512480.885574068 -1152778.28325253 3873.30627742712
 624264.860303389 -1096104.42739066 -19947.4149688465
 764057.073244063 -1002528.48517178 -51989.0004121359
 899294.789584686 -880918.052479852 -82472.4024137458
 1016128.83408665 -740200.826542823 -105519.476126325
 1110034.51524920 -587802.456249788 -117733.080742609
 1180626.83439494 -428788.422783182 -117516.795874712
 1228643.25803962 -266497.237177973 -104711.021240596
 1254736.46518658 -103444.794393060 -80529.5496263016
 1259308.44122122 58520.4271707942 -47613.4475928306
 1242439.99052308 218621.631889454 -9842.91308311875
 1203618.05447518 376910.963985093 28127.1237094103
 1141999.03824803 532567.184704462 61317.3820013608
 1058552.14982455 681028.810238614 84950.2009753166
 961611.506141401 810957.211261533 95922.5921164462
 877768.739867299 900985.704790520 96416.9590572982
 457714.674809873 -1175411.13592174 21339.3751975438
 552844.456309587 -1133979.87321803 -1444.01632166994
 685365.254049125 -1058576.51896601 -35208.7056696494
 824915.366994723 -951826.602122634 -71345.5514141935
 955223.611399160 -817548.790199350 -103495.211425832
 1067302.93616791 -660585.200131885 -126653.332893449
 1156038.65275830 -486139.855771912 -137084.298436401
 1218199.45640273 -299930.775493751 -132593.533970388
 1251786.81551674 -108499.532550807 -113168.241365075
 1256270.60438688 81707.2546838883 -81593.6517407641
 1232409.46030810 266194.498269440 -43091.0913430071
 1181306.66079006 442773.249714492 -3981.63650631128
 1104231.09870674 609385.075886390 29545.5725075465
 1004895.66797117 760919.572028846 52302.3165373902
 895145.543556326 886832.176010056 61583.9131874046
 805809.361767514 968793.021288061 60504.4238906237
 377373.805753195 -1203296.46777605 34871.9412707319
 454745.498075901 -1176684.37624669 13032.3288626872
 573479.377166148 -1123449.13047654 -23084.3261886104
 712268.627557026 -1039074.99653693 -67423.9177796731
 856371.810529293 -919316.221621686 -114168.461989121
 993245.336552650 -761905.856613428 -156564.996067206
 1110740.86467077 -568208.973377565 -186929.732901441
 1197116.71854614 -345363.912525368 -197951.410758927
 1243203.83678079 -107345.647453939 -185662.497842654
 1245684.79436410 128551.221513629 -152621.779102405
 1207581.91047710 348927.998100530 -107445.858687005
 1135012.57221400 547375.599332387 -60628.7480541562
 1034867.08250128 721219.008268690 -21040.3086043823
 916385.392023658 867039.608198434 5437.09662484901
 796042.663345525 978561.808023248 16801.6942892559
 705672.730173260 1045603.23536565 17008.9094789666
 287523.383995780 -1227806.92365212 37012.0629862004
 348306.410946019 -1212433.00725436 15436.2538523493
 448996.257143096 -1178720.36282510 -23876.7303436731
 578773.804418301 -1118231.83673167 -78280.7355474276
 729106.541955673 -1019387.44761070 -144230.069854174
 888640.609827706 -869387.586696919 -214551.908826988
 1039643.17125942 -658995.554154248 -276435.104459515
 1157846.70299028 -391535.719352103 -312474.356971765
 1219827.59696510 -91225.3495044104 -308622.747394149
 1216282.97577152 203515.582577530 -266057.440067871
 1156214.21248811 462706.451465562 -201546.187092696
 1056683.03969051 675866.365671009 -134814.837106465
 933837.269113585 844492.045725942 -79564.8819458045
 802560.657951563 972446.295662643 -42355.9119759286
 680644.487245962 1061930.78828616 -23989.8684985094
 595280.463087897 1112115.36335096 -19748.9185420253
 195858.495296957 -1245948.93860378 28286.4478342324
 240757.351547524 -1238364.22342502 6275.24786151877
 320373.461624127 -1219640.38322508 -37250.6592225777
 432588.102323862 -1180542.98329425 -103610.951358980
 576922.022070613 -1105112.27851690 -193487.113886440
 748329.929769331 -969698.539792017 -302053.785037718
 928885.608678876 -747828.798677008 -411671.039517635
 1081351.84416294 -429592.960314359 -487521.803094699
 1160179.40143345 -51142.7143684002 -492866.726585903
 1146102.72327598 311697.699610819 -425255.832030150
 1060398.17259853 603470.867124465 -320824.031208241
 937305.053676221 815828.931754131 -217788.478540269
 802201.610123671 964048.600666037 -136500.194826966
 671404.853445881 1064869.53100204 -82570.1860949994
 558980.309035795 1129682.05253170 -53934.2675575458
 484266.862588775 1164077.78568645 -44248.6789486845
 104578.841788901 -1257167.33182878 11958.1165558265
 133543.703331097 -1254430.78431974 -10904.9333119108
 189156.498911999 -1245896.77163653 -59249.3397767445
 275161.866145477 -1223350.52619230 -138740.291203828
 397835.249343981 -1169472.79821559 -256144.333398526
 560716.979763480 -1051992.03900872 -412866.382000453
 752616.089926124 -823333.581360868 -589270.961363915
 929861.492901119 -449189.193199515 -724662.751665508
 1022766.29163054 21491.4475384398 -738265.982763645
 999750.810258413 453536.586472841 -621572.451961285
 898786.929753755 761360.758304701 -451731.426332574
 770593.603249503 953634.006576470 -297181.949402737
 643469.166509589 1069545.89313035 -183216.934693317
 529543.078508203 1139729.76722318 -110225.299402617
 436670.598156815 1181468.95172950 -70705.9808186658
 376783.932728196 1202703.51623571 -55565.7357647391
 13188.5198060015 -1261471.05014934 -8141.46788940129
 25492.4939382822 -1260908.31908271 -31776.9498184179
 53796.2456478414 -1257584.68238354 -84475.8042722854
 104685.874888143 -1244819.04936514 -176113.125165403
 187472.923973742 -1205727.86549604 -320349.259499768
 311825.496040283 -1102531.08810609 -527957.849357107
 477313.063851642 -867364.002812952 -781921.579584427
 648818.553709722 -435335.060981048 -990488.414854816
 749208.563477445 129568.640820776 -1006701.50821724
 737350.410982190 615748.878659642 -817751.258496582
 656194.030803538 916278.680640688 -566914.635778720
 557386.158942702 1073836.65486744 -357414.240624455
 463753.808226772 1153811.30546233 -212605.991593440
 382117.397047152 1195984.65956569 -123111.412453978
 316296.533243425 1218991.52039846 -74602.9970832443
 273803.350907705 1230265.76285453 -55020.9841663497
 -79606.0006945666 -1258734.53490601 -28278.7235802991
 -85018.5911405384 -1257624.53845284 -51978.7491261650
 -87215.7722254449 -1253989.60076819 -107018.321605782
 -79271.9112497101 -1242054.85072152 -206313.215293911
 -53280.2215145292 -1205329.31385934 -368635.177466413
 517.231219595513 -1102881.82715023 -612536.397883904
 90675.3240309412 -853398.854125452 -924682.546773866
 209180.246285988 -371415.278100127 -1187368.41236260
 310715.224153537 258548.037161690 -1195055.81161635
 351038.714353068 763617.566273697 -940855.708609207
 341533.429191891 1038847.11211700 -629047.713062815
 310193.508961598 1161149.36123705 -383486.086860838
 272010.222701385 1212037.19404964 -220285.519054644
 233405.689535624 1233838.12567979 -121304.141027145
 198922.619037582 1243958.23473455 -67432.4312944782
 174977.573139467 1248563.13680946 -44970.8040589518
 -174977.658355379 -1248563.12918899 -44970.6840642813
 -198922.722627461 -1243958.22512972 -67432.3028936448
 -233405.830542198 -1233838.11317580 -121303.996894727
 -272010.412000742 -1212037.18514047 -220285.334325535
 -310193.765834951 -1161149.37516158 -383485.836919628
 -341533.778467031 -1038847.19671329 -629047.383720761
 -351039.190966684 -763617.806192439 -940855.336058767
 -310715.833366180 -258548.479754094 -1195055.55746641
 -209180.896450769 371414.810619866 -1187368.44405232
 -90675.8780287085 853398.559404552 -924682.764448928
 -517.653920080474 1102881.69331172 -612536.638505192
 53279.9192032123 1205329.26366297 -368635.385287864
 79271.6909749339 1242054.83638554 -206313.386236152
 87215.6115604296 1253989.59986421 -107018.463133623
 85018.4772508383 1257624.54103156 -51978.8730164717
 79605.9148269146 1258734.53768955 -28278.8414013781
 -273803.426147947 -1230265.75184357 -55020.8559490238
 -316296.626985490 -1218991.50440740 -74602.8609313476
 -382117.518118194 -1195984.63704119 -123111.255487074
 -463753.959938169 -1153811.28173985 -212605.789409567
 -557386.344569063 -1073836.64812567 -357413.971396090
 -656194.266035716 -916278.736972783 -566914.272454277
 -737350.720261581 -615749.080376985 -817750.827736407
 -749208.982704081 -129569.039739912 -1006701.14487635
 -648819.065693187 435334.602237843 -990488.281105028
 -477313.565391852 867363.667860476 -781921.644979529
 -311825.906745619 1102530.89989880 -527957.999815866
 -187473.240197016 1205727.77400226 -320349.418804755
 -104686.110131920 1244819.00834494 -176113.275273399
 -53796.4175251720 1257584.66594708 -84475.9395045597
 -25492.6139407466 1260908.31348849 -31777.0755267295
 -13188.6080385199 1261471.04843893 -8141.58997601666
 -376784.002588235 -1202703.50117230 -55565.5880958279
 -436670.679185894 -1181468.93094940 -70705.8276208855
 -529543.176526342 -1139729.73815824 -110225.129036432
 -643469.277620565 -1069545.86206459 -183216.725813839
 -770593.724044148 -953633.993625273 -297181.677741139
 -898787.057193166 -761360.808796966 -451731.087671672
 -999750.968975497 -453536.763759710 -621572.067317924
 -1022766.52616208 -21491.7911538816 -738265.647849265
 -929861.829882901 449188.782968882 -724662.573547657
 -752616.473615777 823333.242252296 -589270.945120687
 -560717.336335968 1051991.81685863 -412866.463779422
 -397835.548397264 1169472.66954391 -256144.456391806
 -275162.105011067 1223350.45761258 -138740.422170081
 -189156.674136583 1245896.73885370 -59249.4697213024
 -133543.828100814 1254430.76992271 -10905.0614965911
 -104578.932922657 1257167.32542450 11957.9928386677
 -484266.927190316 -1164077.76531573 -44248.5078407121
 -558980.379992949 -1129682.02582755 -53934.0914826809
 -671404.932853827 -1064869.49567250 -82569.9960317983
 -802201.689748815 -964048.564632863 -136499.981364163
 -937305.122501198 -815828.919860619 -217788.226888010
 -1060398.22950715 -603470.920135171 -320823.743398566
 -1146102.79119162 -311697.858321850 -425255.532661603
 -1160179.52317495 51142.4313586129 -492866.469380118
 -1081352.05060203 429592.615802910 -487521.648776087
 -928885.879362547 747828.485029958 -411670.998514128
 -748330.214611909 969698.305365564 -302053.831938945
 -576922.287252141 1105112.12284110 -193487.212343200
 -432588.324836375 1180542.89152681 -103611.067940279
 -320373.638463443 1219640.33287743 -37250.7867739159
 -240757.483787120 1238364.19836449 6275.11980071132
 -195858.595338550 1245948.92585433 28286.3167169925
 -595280.523891884 -1112115.33444508 -19748.7135294891
 -680644.549111335 -1061930.75330963 -23989.6615068431
 -802560.716295501 -972446.256628119 -42355.7026640469
 -933837.316420520 -844492.013708525 -79564.6665423562
 -1056683.07314254 -675866.358668241 -134814.610015064
 -1156214.23116007 -462706.507603543 -201545.951096076
 -1216283.00087633 -203515.721518294 -266057.219020834
 -1219827.65927405 91225.1212459189 -308622.568589227
 -1157846.82814202 391535.440686020 -312474.242406018
 -1039643.35357366 658995.281937565 -276435.067733988
 -888640.826290056 869387.356128233 -214551.946562696
 -729106.761440612 1019387.27836895 -144230.156486362
 -578774.013867517 1118231.72014261 -78280.8524322929
 -448996.432915800 1178720.29326627 -23876.8588827935
 -348306.554447622 1212432.96784945 15436.1108944351
 -287523.499467108 1227806.90082220 37011.9233021184
 -705672.788379273 -1045603.19211198 17009.1535711804
 -796042.717684607 -978561.759719493 16801.9330717724
 -916385.432568570 -867039.563913855 5437.32499854969
 -1034867.10723584 -721218.979029245 -21040.0943034148
 -1135012.58202387 -547375.601638415 -60628.5435867227
 -1207581.91049902 -348928.056568878 -107445.668565821
 -1245684.80144497 -128551.348076042 -152621.614707027
 -1243203.87145984 107345.458813918 -185662.374697331
 -1197116.79570005 345363.687291149 -197951.337132277
 -1110740.98796016 568208.738311225 -186929.714842243
 -993245.495087864 761905.641889094 -156565.035254317
 -856371.991862057 919316.041900022 -114168.548989835
 -712268.811475991 1039074.86261295 -67424.0387651843
 -573479.548868844 1123449.03983417 -23084.4719201039
 -454745.648919572 1176684.31966502 13032.1741139499
 -377373.935780973 1203296.43159228 34871.7827107036
 -805809.412456174 -968792.961759886 60504.7019701583
 -895145.584251888 -886832.116628543 61584.1767781201
 -1004895.69246272 -760919.523230863 52302.5559120685
 -1104231.10898431 -609385.046985282 29545.7844874744
 -1181306.65743809 -442773.260303225 -3981.45348475985
 -1232409.45352262 -266194.555601466 -43090.9312404144
 -1256270.60530030 -81707.3674828453 -81593.5247210657
 -1251786.83739103 108499.373716740 -113168.151688479
 -1218199.50827632 299930.586378011 -132593.485168918
 -1156038.73563105 486139.659806157 -137084.294516423
 -1067303.04997174 660585.007747039 -126653.377293366
 -955223.752473574 817548.613634791 -103495.304111295
 -824915.525452469 951826.455044159 -71345.6814705839
 -685365.415358672 1058576.40919366 -35208.8660403837
 -552844.614873178 1133979.79568982 -1444.19249411436
 -457714.827432764 1175411.07985978 21339.1895353100
 -877768.780115838 -900985.632931649 96417.2641369905
 -961611.532427552 -810957.147454306 95922.8680454423
 -1058552.16135940 -681028.761408390 84950.4487030436
 -1141999.03774529 -532567.161661480 61317.5915021351
 -1203618.04695141 -376910.975030289 28127.2976579723
 -1242439.98222380 -218621.685495173 -9842.77003317421
 -1259308.44060055 -58520.5306002909 -47613.3368859383
 -1254736.48150552 103444.653887320 -80529.4758472005
 -1228643.29582186 266497.077066809 -104710.985411243
 -1180626.89524166 428788.254042575 -117516.800271781
 -1110034.60220183 587802.281965599 -117733.131061787
 -1016128.94637162 740200.658940181 -105519.570550592
 -899294.927081429 880917.899221966 -82472.5401265047
 -764057.229224815 1002528.35730493 -51989.1737550296
 -624265.025613990 1096104.32970598 -19947.6092280409
 -512481.054472869 1152778.20885145 3873.10244795348
 534954.273728592 -1141952.57347863 36299.8052888635
 650464.264738451 -1080856.31683378 13974.7478597998
 793485.173176400 -980580.778621729 -19800.1885287821
 928622.240058418 -852162.306836041 -55041.5206522849
 1041894.45078079 -706313.951143936 -84415.5600028889
 1129970.77469773 -551386.920894845 -103382.506808799
 1193898.40826342 -392590.777193455 -109674.533633201
 1235622.74473727 -232878.876622715 -102729.218968217
 1256625.63395274 -74033.6868355219 -83429.3726775996
 1257670.46286419 83023.7660165171 -54050.8282485575
 1238695.67419787 238445.380674806 -18062.6154609596
 1198599.72558353 393059.205262063 20312.3092923020
 1135614.79364712 546562.097460144 56553.9122319162
 1049680.31630356 694453.757747341 86340.2735368526
 948722.930447042 824695.763030081 106541.684814743
 860993.258956191 914676.941364329 116645.325184279
 477921.434725297 -1166810.74746099 41148.6665470785
 576931.193701013 -1121752.80655827 19247.5877015748
 713720.524397407 -1040138.15233850 -16280.9097626806
 854817.673285777 -926072.573389834 -56795.8200255481
 982977.098442763 -785075.004319393 -94671.4975528789
 1089748.59960590 -623441.641562327 -123765.666248742
 1171334.04765060 -447254.955611977 -139602.952740742
 1226066.82121984 -262364.295629207 -139551.270871428
 1253307.26754350 -74650.6537720226 -123278.562341569
 1253241.86640987 110655.839277488 -93217.7044893541
 1226514.34651130 290298.515266055 -54210.3380844966